[Molden Format]
[N_ATOMS]
                   24
[ATOMS] (AU)
N1          1      7          -0.03757153      0.00000000      1.21106311
C2          2      6           2.40160191      0.00000000      2.34551673
C3          3      6           2.39642784      0.00000000      5.01092251
C4          4      6           4.69274555      0.00000000      6.34321912
C5          5      6           6.99920541      0.00000000      5.01214139
C6          6      6           6.99215863      0.00000000      2.33967180
C7          7      6           4.71098329      0.00000000      0.99653195
H8          8      1           0.57998340      0.00000000      5.99655075
H9          9      1           4.68523011      0.00000000      8.41064186
H10        10      1           8.79189977      0.00000000      6.04102356
H11        11      1           8.78513644      0.00000000      1.30850306
H12        12      1           4.68159049      0.00000000     -1.06534066
N13        13      7           0.03757153      0.00000000     -1.21106311
C14        14      6          -2.40160191      0.00000000     -2.34551673
C15        15      6          -2.39642784      0.00000000     -5.01092251
C16        16      6          -4.69274555      0.00000000     -6.34321912
C17        17      6          -6.99920541      0.00000000     -5.01214139
C18        18      6          -6.99215863      0.00000000     -2.33967180
C19        19      6          -4.71098329      0.00000000     -0.99653195
H20        20      1          -0.57998340      0.00000000     -5.99655075
H21        21      1          -4.68523011      0.00000000     -8.41064186
H22        22      1          -8.79189977      0.00000000     -6.04102356
H23        23      1          -8.78513644      0.00000000     -1.30850306
H24        24      1          -4.68159049      0.00000000      1.06534066
[5D]
[7F]
[9G]
[CHARGE] (MULLIKEN)
 -0.78041017996443252     
  0.70697640543332874     
  0.14096830812300087     
  0.11736269361565022     
  0.17245520721916208     
  0.10779328565422741     
  0.14584736982344992     
  -9.3753060030591584E-002
  -8.6504272885613798E-002
  -9.0093496550509355E-002
  -8.4601986570806531E-002
  -9.2531125814236503E-002
   6.0022411458682257E-003
  0.25577346475984797     
  0.22963669107576923     
  0.14283472459407687     
  0.27049078627788425     
  0.14779665142727083     
  0.20842917316349752     
  -8.9733503364569200E-002
  -8.3692794959218997E-002
  -8.3437301543818121E-002
  -8.2195051617175441E-002
  -8.5414229023563104E-002
[GTO] (AU)
   1
   s  14
  0.747617150E+05  0.118260000E-03
  0.111236540E+05  0.517289998E-03
  0.251268570E+04  0.226665999E-02
  0.703777290E+03  0.914528997E-02
  0.225478790E+03  0.323934299E-01
  0.796158100E+02  0.977079297E-01
  0.302372830E+02  0.231703679E+00
  0.122636220E+02  0.376889889E+00
  0.526508600E+01  0.317742069E+00
  0.233347100E+01  0.821130897E-01
  0.901856000E+00  0.331208999E-02
  0.358336000E+00  0.372081999E-02
  0.141093000E+00  0.316541999E-02
  0.493830000E-01  0.459579998E-03
   s  14
  0.747617150E+05 -0.270700001E-04
  0.111236540E+05 -0.118370000E-03
  0.251268570E+04 -0.520380002E-03
  0.703777290E+03 -0.210293001E-02
  0.225478790E+03 -0.756820003E-02
  0.796158100E+02 -0.234676701E-01
  0.302372830E+02 -0.604290102E-01
  0.122636220E+02 -0.117054910E+00
  0.526508600E+01 -0.155532151E+00
  0.233347100E+01 -0.246893501E-01
  0.901856000E+00  0.362505451E+00
  0.358336000E+00  0.555084502E+00
  0.141093000E+00  0.214837691E+00
  0.493830000E-01  0.898385003E-02
   s  14
  0.747617150E+05  0.187600000E-04
  0.111236540E+05  0.811799999E-04
  0.251268570E+04  0.365900000E-03
  0.703777290E+03  0.144304000E-02
  0.225478790E+03  0.553183999E-02
  0.796158100E+02  0.172435900E-01
  0.302372830E+02  0.527954800E-01
  0.122636220E+02  0.115288130E+00
  0.526508600E+01  0.235259390E+00
  0.233347100E+01 -0.489638700E-01
  0.901856000E+00 -0.102321774E+01
  0.358336000E+00 -0.148158660E+00
  0.141093000E+00  0.102155754E+01
  0.493830000E-01  0.172401830E+00
   s  14
  0.747617150E+05 -0.494400000E-04
  0.111236540E+05 -0.207340000E-03
  0.251268570E+04 -0.986759999E-03
  0.703777290E+03 -0.354228000E-02
  0.225478790E+03 -0.148099700E-01
  0.796158100E+02 -0.379156800E-01
  0.302372830E+02 -0.125705540E+00
  0.122636220E+02 -0.145623950E+00
  0.526508600E+01 -0.473257100E+00
  0.233347100E+01  0.896875909E+00
  0.901856000E+00  0.125975854E+01
  0.358336000E+00 -0.253303820E+01
  0.141093000E+00  0.892343149E+00
  0.493830000E-01  0.544772570E+00
   p   9
  0.126666570E+03  0.123363000E-02
  0.298373890E+02  0.949341000E-02
  0.939403800E+01  0.429396200E-01
  0.340510400E+01  0.136292540E+00
  0.135000000E+01  0.292136250E+00
  0.557696000E+00  0.388788760E+00
  0.232449000E+00  0.294680140E+00
  0.942640000E-01  0.801287600E-01
  0.329920000E-01  0.540520000E-03
   p   9
  0.126666570E+03 -0.146623000E-02
  0.298373890E+02 -0.118214800E-01
  0.939403800E+01 -0.498312599E-01
  0.340510400E+01 -0.173090420E+00
  0.135000000E+01 -0.473237079E+00
  0.557696000E+00 -0.205511320E+00
  0.232449000E+00  0.591037979E+00
  0.942640000E-01  0.451179679E+00
  0.329920000E-01  0.136747200E-01
   p   9
  0.126666570E+03  0.265721000E-02
  0.298373890E+02  0.278559300E-01
  0.939403800E+01  0.101795880E+00
  0.340510400E+01  0.503826390E+00
  0.135000000E+01  0.515319480E+00
  0.557696000E+00 -0.125011385E+01
  0.232449000E+00  0.250603500E-01
  0.942640000E-01  0.707692970E+00
  0.329920000E-01  0.139397500E-01
   d   4
  0.275000000E+01  0.147301650E+00
  0.962500000E+00  0.550218262E+00
  0.336875000E+00  0.445256041E+00
  0.117906000E+00  0.494286902E-01
   d   4
  0.275000000E+01 -0.444084339E+00
  0.962500000E+00 -0.591384799E+00
  0.336875000E+00  0.865133619E+00
  0.117906000E+00  0.166404830E+00
   f   3
  0.180000000E+01  0.332090082E+00
  0.720000000E+00  0.569910554E+00
  0.288000000E+00  0.286832732E+00
 
   2
   s  14
  0.505575010E+05  0.112887400E-03
  0.752478560E+04  0.529537300E-03
  0.169432760E+04  0.245003830E-02
  0.472822790E+03  0.100539847E-01
  0.151710750E+03  0.354539806E-01
  0.539187460E+02  0.104407109E+00
  0.206593110E+02  0.241289492E+00
  0.838397600E+01  0.383422548E+00
  0.357701500E+01  0.307851439E+00
  0.154711800E+01  0.687244299E-01
  0.613013000E+00  0.222444500E-03
  0.246068000E+00  0.197674890E-02
  0.990870000E-01  0.205785940E-02
  0.346800000E-01  0.418202000E-03
   s  14
  0.505575010E+05 -0.250742000E-04
  0.752478560E+04 -0.117594500E-03
  0.169432760E+04 -0.545627500E-03
  0.472822790E+03 -0.224507710E-02
  0.151710750E+03 -0.804347180E-02
  0.539187460E+02 -0.244258871E-01
  0.206593110E+02 -0.613679118E-01
  0.838397600E+01 -0.117776784E+00
  0.357701500E+01 -0.155048778E+00
  0.154711800E+01 -0.193331686E-01
  0.613013000E+00  0.399693068E+00
  0.246068000E+00  0.558942095E+00
  0.990870000E-01  0.171119502E+00
  0.346800000E-01  0.745624460E-02
   s  14
  0.505575010E+05  0.161788000E-04
  0.752478560E+04  0.749712000E-04
  0.169432760E+04  0.357346700E-03
  0.472822790E+03  0.143493160E-02
  0.151710750E+03  0.550867790E-02
  0.539187460E+02  0.169149690E-01
  0.206593110E+02  0.514166524E-01
  0.838397600E+01  0.113734374E+00
  0.357701500E+01  0.233718394E+00
  0.154711800E+01 -0.718378257E-01
  0.613013000E+00 -0.104909087E+01
  0.246068000E+00 -0.666273399E-01
  0.990870000E-01  0.101199938E+01
  0.346800000E-01  0.165604639E+00
   s  14
  0.505575010E+05 -0.455357000E-04
  0.752478560E+04 -0.204647000E-03
  0.169432760E+04 -0.102646010E-02
  0.472822790E+03 -0.377644400E-02
  0.151710750E+03 -0.156602173E-01
  0.539187460E+02 -0.398609476E-01
  0.206593110E+02 -0.129730088E+00
  0.838397600E+01 -0.159269297E+00
  0.357701500E+01 -0.482172080E+00
  0.154711800E+01  0.108542566E+01
  0.613013000E+00  0.104686870E+01
  0.246068000E+00 -0.256795297E+01
  0.990870000E-01  0.106166880E+01
  0.346800000E-01  0.458331291E+00
   p   9
  0.833331550E+02  0.134465600E-02
  0.195576110E+02  0.102355550E-01
  0.608036500E+01  0.452006710E-01
  0.217931700E+01  0.141075620E+00
  0.865150000E+00  0.304738808E+00
  0.361944000E+00  0.399528101E+00
  0.154740000E+00  0.271916343E+00
  0.654290000E-01  0.585766933E-01
  0.229000000E-01 -0.126381300E-03
   p   9
  0.833331550E+02 -0.177158850E-02
  0.195576110E+02 -0.145621810E-01
  0.608036500E+01 -0.574573357E-01
  0.217931700E+01 -0.212658285E+00
  0.865150000E+00 -0.527171292E+00
  0.361944000E+00 -0.929697730E-01
  0.154740000E+00  0.663003167E+00
  0.654290000E-01  0.336087779E+00
  0.229000000E-01  0.546952440E-02
   p   9
  0.833331550E+02  0.378619050E-02
  0.195576110E+02  0.363883533E-01
  0.608036500E+01  0.150643567E+00
  0.217931700E+01  0.666891458E+00
  0.865150000E+00  0.173724026E+00
  0.361944000E+00 -0.128022440E+01
  0.154740000E+00  0.396386442E+00
  0.654290000E-01  0.524464184E+00
  0.229000000E-01  0.622950920E-02
   d   4
  0.190000000E+01  0.142451805E+00
  0.665000000E+00  0.559197302E+00
  0.232750000E+00  0.443000438E+00
  0.814630000E-01  0.410665370E-01
   d   4
  0.190000000E+01 -0.438379972E+00
  0.665000000E+00 -0.592678139E+00
  0.232750000E+00  0.867243576E+00
  0.814630000E-01  0.170171494E+00
 
   3
   s  14
  0.505575010E+05  0.112887400E-03
  0.752478560E+04  0.529537300E-03
  0.169432760E+04  0.245003830E-02
  0.472822790E+03  0.100539847E-01
  0.151710750E+03  0.354539806E-01
  0.539187460E+02  0.104407109E+00
  0.206593110E+02  0.241289492E+00
  0.838397600E+01  0.383422548E+00
  0.357701500E+01  0.307851439E+00
  0.154711800E+01  0.687244299E-01
  0.613013000E+00  0.222444500E-03
  0.246068000E+00  0.197674890E-02
  0.990870000E-01  0.205785940E-02
  0.346800000E-01  0.418202000E-03
   s  14
  0.505575010E+05 -0.250742000E-04
  0.752478560E+04 -0.117594500E-03
  0.169432760E+04 -0.545627500E-03
  0.472822790E+03 -0.224507710E-02
  0.151710750E+03 -0.804347180E-02
  0.539187460E+02 -0.244258871E-01
  0.206593110E+02 -0.613679118E-01
  0.838397600E+01 -0.117776784E+00
  0.357701500E+01 -0.155048778E+00
  0.154711800E+01 -0.193331686E-01
  0.613013000E+00  0.399693068E+00
  0.246068000E+00  0.558942095E+00
  0.990870000E-01  0.171119502E+00
  0.346800000E-01  0.745624460E-02
   s  14
  0.505575010E+05  0.161788000E-04
  0.752478560E+04  0.749712000E-04
  0.169432760E+04  0.357346700E-03
  0.472822790E+03  0.143493160E-02
  0.151710750E+03  0.550867790E-02
  0.539187460E+02  0.169149690E-01
  0.206593110E+02  0.514166524E-01
  0.838397600E+01  0.113734374E+00
  0.357701500E+01  0.233718394E+00
  0.154711800E+01 -0.718378257E-01
  0.613013000E+00 -0.104909087E+01
  0.246068000E+00 -0.666273399E-01
  0.990870000E-01  0.101199938E+01
  0.346800000E-01  0.165604639E+00
   s  14
  0.505575010E+05 -0.455357000E-04
  0.752478560E+04 -0.204647000E-03
  0.169432760E+04 -0.102646010E-02
  0.472822790E+03 -0.377644400E-02
  0.151710750E+03 -0.156602173E-01
  0.539187460E+02 -0.398609476E-01
  0.206593110E+02 -0.129730088E+00
  0.838397600E+01 -0.159269297E+00
  0.357701500E+01 -0.482172080E+00
  0.154711800E+01  0.108542566E+01
  0.613013000E+00  0.104686870E+01
  0.246068000E+00 -0.256795297E+01
  0.990870000E-01  0.106166880E+01
  0.346800000E-01  0.458331291E+00
   p   9
  0.833331550E+02  0.134465600E-02
  0.195576110E+02  0.102355550E-01
  0.608036500E+01  0.452006710E-01
  0.217931700E+01  0.141075620E+00
  0.865150000E+00  0.304738808E+00
  0.361944000E+00  0.399528101E+00
  0.154740000E+00  0.271916343E+00
  0.654290000E-01  0.585766933E-01
  0.229000000E-01 -0.126381300E-03
   p   9
  0.833331550E+02 -0.177158850E-02
  0.195576110E+02 -0.145621810E-01
  0.608036500E+01 -0.574573357E-01
  0.217931700E+01 -0.212658285E+00
  0.865150000E+00 -0.527171292E+00
  0.361944000E+00 -0.929697730E-01
  0.154740000E+00  0.663003167E+00
  0.654290000E-01  0.336087779E+00
  0.229000000E-01  0.546952440E-02
   p   9
  0.833331550E+02  0.378619050E-02
  0.195576110E+02  0.363883533E-01
  0.608036500E+01  0.150643567E+00
  0.217931700E+01  0.666891458E+00
  0.865150000E+00  0.173724026E+00
  0.361944000E+00 -0.128022440E+01
  0.154740000E+00  0.396386442E+00
  0.654290000E-01  0.524464184E+00
  0.229000000E-01  0.622950920E-02
   d   4
  0.190000000E+01  0.142451805E+00
  0.665000000E+00  0.559197302E+00
  0.232750000E+00  0.443000438E+00
  0.814630000E-01  0.410665370E-01
   d   4
  0.190000000E+01 -0.438379972E+00
  0.665000000E+00 -0.592678139E+00
  0.232750000E+00  0.867243576E+00
  0.814630000E-01  0.170171494E+00
 
   4
   s  14
  0.505575010E+05  0.112887400E-03
  0.752478560E+04  0.529537300E-03
  0.169432760E+04  0.245003830E-02
  0.472822790E+03  0.100539847E-01
  0.151710750E+03  0.354539806E-01
  0.539187460E+02  0.104407109E+00
  0.206593110E+02  0.241289492E+00
  0.838397600E+01  0.383422548E+00
  0.357701500E+01  0.307851439E+00
  0.154711800E+01  0.687244299E-01
  0.613013000E+00  0.222444500E-03
  0.246068000E+00  0.197674890E-02
  0.990870000E-01  0.205785940E-02
  0.346800000E-01  0.418202000E-03
   s  14
  0.505575010E+05 -0.250742000E-04
  0.752478560E+04 -0.117594500E-03
  0.169432760E+04 -0.545627500E-03
  0.472822790E+03 -0.224507710E-02
  0.151710750E+03 -0.804347180E-02
  0.539187460E+02 -0.244258871E-01
  0.206593110E+02 -0.613679118E-01
  0.838397600E+01 -0.117776784E+00
  0.357701500E+01 -0.155048778E+00
  0.154711800E+01 -0.193331686E-01
  0.613013000E+00  0.399693068E+00
  0.246068000E+00  0.558942095E+00
  0.990870000E-01  0.171119502E+00
  0.346800000E-01  0.745624460E-02
   s  14
  0.505575010E+05  0.161788000E-04
  0.752478560E+04  0.749712000E-04
  0.169432760E+04  0.357346700E-03
  0.472822790E+03  0.143493160E-02
  0.151710750E+03  0.550867790E-02
  0.539187460E+02  0.169149690E-01
  0.206593110E+02  0.514166524E-01
  0.838397600E+01  0.113734374E+00
  0.357701500E+01  0.233718394E+00
  0.154711800E+01 -0.718378257E-01
  0.613013000E+00 -0.104909087E+01
  0.246068000E+00 -0.666273399E-01
  0.990870000E-01  0.101199938E+01
  0.346800000E-01  0.165604639E+00
   s  14
  0.505575010E+05 -0.455357000E-04
  0.752478560E+04 -0.204647000E-03
  0.169432760E+04 -0.102646010E-02
  0.472822790E+03 -0.377644400E-02
  0.151710750E+03 -0.156602173E-01
  0.539187460E+02 -0.398609476E-01
  0.206593110E+02 -0.129730088E+00
  0.838397600E+01 -0.159269297E+00
  0.357701500E+01 -0.482172080E+00
  0.154711800E+01  0.108542566E+01
  0.613013000E+00  0.104686870E+01
  0.246068000E+00 -0.256795297E+01
  0.990870000E-01  0.106166880E+01
  0.346800000E-01  0.458331291E+00
   p   9
  0.833331550E+02  0.134465600E-02
  0.195576110E+02  0.102355550E-01
  0.608036500E+01  0.452006710E-01
  0.217931700E+01  0.141075620E+00
  0.865150000E+00  0.304738808E+00
  0.361944000E+00  0.399528101E+00
  0.154740000E+00  0.271916343E+00
  0.654290000E-01  0.585766933E-01
  0.229000000E-01 -0.126381300E-03
   p   9
  0.833331550E+02 -0.177158850E-02
  0.195576110E+02 -0.145621810E-01
  0.608036500E+01 -0.574573357E-01
  0.217931700E+01 -0.212658285E+00
  0.865150000E+00 -0.527171292E+00
  0.361944000E+00 -0.929697730E-01
  0.154740000E+00  0.663003167E+00
  0.654290000E-01  0.336087779E+00
  0.229000000E-01  0.546952440E-02
   p   9
  0.833331550E+02  0.378619050E-02
  0.195576110E+02  0.363883533E-01
  0.608036500E+01  0.150643567E+00
  0.217931700E+01  0.666891458E+00
  0.865150000E+00  0.173724026E+00
  0.361944000E+00 -0.128022440E+01
  0.154740000E+00  0.396386442E+00
  0.654290000E-01  0.524464184E+00
  0.229000000E-01  0.622950920E-02
   d   4
  0.190000000E+01  0.142451805E+00
  0.665000000E+00  0.559197302E+00
  0.232750000E+00  0.443000438E+00
  0.814630000E-01  0.410665370E-01
   d   4
  0.190000000E+01 -0.438379972E+00
  0.665000000E+00 -0.592678139E+00
  0.232750000E+00  0.867243576E+00
  0.814630000E-01  0.170171494E+00
 
   5
   s  14
  0.505575010E+05  0.112887400E-03
  0.752478560E+04  0.529537300E-03
  0.169432760E+04  0.245003830E-02
  0.472822790E+03  0.100539847E-01
  0.151710750E+03  0.354539806E-01
  0.539187460E+02  0.104407109E+00
  0.206593110E+02  0.241289492E+00
  0.838397600E+01  0.383422548E+00
  0.357701500E+01  0.307851439E+00
  0.154711800E+01  0.687244299E-01
  0.613013000E+00  0.222444500E-03
  0.246068000E+00  0.197674890E-02
  0.990870000E-01  0.205785940E-02
  0.346800000E-01  0.418202000E-03
   s  14
  0.505575010E+05 -0.250742000E-04
  0.752478560E+04 -0.117594500E-03
  0.169432760E+04 -0.545627500E-03
  0.472822790E+03 -0.224507710E-02
  0.151710750E+03 -0.804347180E-02
  0.539187460E+02 -0.244258871E-01
  0.206593110E+02 -0.613679118E-01
  0.838397600E+01 -0.117776784E+00
  0.357701500E+01 -0.155048778E+00
  0.154711800E+01 -0.193331686E-01
  0.613013000E+00  0.399693068E+00
  0.246068000E+00  0.558942095E+00
  0.990870000E-01  0.171119502E+00
  0.346800000E-01  0.745624460E-02
   s  14
  0.505575010E+05  0.161788000E-04
  0.752478560E+04  0.749712000E-04
  0.169432760E+04  0.357346700E-03
  0.472822790E+03  0.143493160E-02
  0.151710750E+03  0.550867790E-02
  0.539187460E+02  0.169149690E-01
  0.206593110E+02  0.514166524E-01
  0.838397600E+01  0.113734374E+00
  0.357701500E+01  0.233718394E+00
  0.154711800E+01 -0.718378257E-01
  0.613013000E+00 -0.104909087E+01
  0.246068000E+00 -0.666273399E-01
  0.990870000E-01  0.101199938E+01
  0.346800000E-01  0.165604639E+00
   s  14
  0.505575010E+05 -0.455357000E-04
  0.752478560E+04 -0.204647000E-03
  0.169432760E+04 -0.102646010E-02
  0.472822790E+03 -0.377644400E-02
  0.151710750E+03 -0.156602173E-01
  0.539187460E+02 -0.398609476E-01
  0.206593110E+02 -0.129730088E+00
  0.838397600E+01 -0.159269297E+00
  0.357701500E+01 -0.482172080E+00
  0.154711800E+01  0.108542566E+01
  0.613013000E+00  0.104686870E+01
  0.246068000E+00 -0.256795297E+01
  0.990870000E-01  0.106166880E+01
  0.346800000E-01  0.458331291E+00
   p   9
  0.833331550E+02  0.134465600E-02
  0.195576110E+02  0.102355550E-01
  0.608036500E+01  0.452006710E-01
  0.217931700E+01  0.141075620E+00
  0.865150000E+00  0.304738808E+00
  0.361944000E+00  0.399528101E+00
  0.154740000E+00  0.271916343E+00
  0.654290000E-01  0.585766933E-01
  0.229000000E-01 -0.126381300E-03
   p   9
  0.833331550E+02 -0.177158850E-02
  0.195576110E+02 -0.145621810E-01
  0.608036500E+01 -0.574573357E-01
  0.217931700E+01 -0.212658285E+00
  0.865150000E+00 -0.527171292E+00
  0.361944000E+00 -0.929697730E-01
  0.154740000E+00  0.663003167E+00
  0.654290000E-01  0.336087779E+00
  0.229000000E-01  0.546952440E-02
   p   9
  0.833331550E+02  0.378619050E-02
  0.195576110E+02  0.363883533E-01
  0.608036500E+01  0.150643567E+00
  0.217931700E+01  0.666891458E+00
  0.865150000E+00  0.173724026E+00
  0.361944000E+00 -0.128022440E+01
  0.154740000E+00  0.396386442E+00
  0.654290000E-01  0.524464184E+00
  0.229000000E-01  0.622950920E-02
   d   4
  0.190000000E+01  0.142451805E+00
  0.665000000E+00  0.559197302E+00
  0.232750000E+00  0.443000438E+00
  0.814630000E-01  0.410665370E-01
   d   4
  0.190000000E+01 -0.438379972E+00
  0.665000000E+00 -0.592678139E+00
  0.232750000E+00  0.867243576E+00
  0.814630000E-01  0.170171494E+00
 
   6
   s  14
  0.505575010E+05  0.112887400E-03
  0.752478560E+04  0.529537300E-03
  0.169432760E+04  0.245003830E-02
  0.472822790E+03  0.100539847E-01
  0.151710750E+03  0.354539806E-01
  0.539187460E+02  0.104407109E+00
  0.206593110E+02  0.241289492E+00
  0.838397600E+01  0.383422548E+00
  0.357701500E+01  0.307851439E+00
  0.154711800E+01  0.687244299E-01
  0.613013000E+00  0.222444500E-03
  0.246068000E+00  0.197674890E-02
  0.990870000E-01  0.205785940E-02
  0.346800000E-01  0.418202000E-03
   s  14
  0.505575010E+05 -0.250742000E-04
  0.752478560E+04 -0.117594500E-03
  0.169432760E+04 -0.545627500E-03
  0.472822790E+03 -0.224507710E-02
  0.151710750E+03 -0.804347180E-02
  0.539187460E+02 -0.244258871E-01
  0.206593110E+02 -0.613679118E-01
  0.838397600E+01 -0.117776784E+00
  0.357701500E+01 -0.155048778E+00
  0.154711800E+01 -0.193331686E-01
  0.613013000E+00  0.399693068E+00
  0.246068000E+00  0.558942095E+00
  0.990870000E-01  0.171119502E+00
  0.346800000E-01  0.745624460E-02
   s  14
  0.505575010E+05  0.161788000E-04
  0.752478560E+04  0.749712000E-04
  0.169432760E+04  0.357346700E-03
  0.472822790E+03  0.143493160E-02
  0.151710750E+03  0.550867790E-02
  0.539187460E+02  0.169149690E-01
  0.206593110E+02  0.514166524E-01
  0.838397600E+01  0.113734374E+00
  0.357701500E+01  0.233718394E+00
  0.154711800E+01 -0.718378257E-01
  0.613013000E+00 -0.104909087E+01
  0.246068000E+00 -0.666273399E-01
  0.990870000E-01  0.101199938E+01
  0.346800000E-01  0.165604639E+00
   s  14
  0.505575010E+05 -0.455357000E-04
  0.752478560E+04 -0.204647000E-03
  0.169432760E+04 -0.102646010E-02
  0.472822790E+03 -0.377644400E-02
  0.151710750E+03 -0.156602173E-01
  0.539187460E+02 -0.398609476E-01
  0.206593110E+02 -0.129730088E+00
  0.838397600E+01 -0.159269297E+00
  0.357701500E+01 -0.482172080E+00
  0.154711800E+01  0.108542566E+01
  0.613013000E+00  0.104686870E+01
  0.246068000E+00 -0.256795297E+01
  0.990870000E-01  0.106166880E+01
  0.346800000E-01  0.458331291E+00
   p   9
  0.833331550E+02  0.134465600E-02
  0.195576110E+02  0.102355550E-01
  0.608036500E+01  0.452006710E-01
  0.217931700E+01  0.141075620E+00
  0.865150000E+00  0.304738808E+00
  0.361944000E+00  0.399528101E+00
  0.154740000E+00  0.271916343E+00
  0.654290000E-01  0.585766933E-01
  0.229000000E-01 -0.126381300E-03
   p   9
  0.833331550E+02 -0.177158850E-02
  0.195576110E+02 -0.145621810E-01
  0.608036500E+01 -0.574573357E-01
  0.217931700E+01 -0.212658285E+00
  0.865150000E+00 -0.527171292E+00
  0.361944000E+00 -0.929697730E-01
  0.154740000E+00  0.663003167E+00
  0.654290000E-01  0.336087779E+00
  0.229000000E-01  0.546952440E-02
   p   9
  0.833331550E+02  0.378619050E-02
  0.195576110E+02  0.363883533E-01
  0.608036500E+01  0.150643567E+00
  0.217931700E+01  0.666891458E+00
  0.865150000E+00  0.173724026E+00
  0.361944000E+00 -0.128022440E+01
  0.154740000E+00  0.396386442E+00
  0.654290000E-01  0.524464184E+00
  0.229000000E-01  0.622950920E-02
   d   4
  0.190000000E+01  0.142451805E+00
  0.665000000E+00  0.559197302E+00
  0.232750000E+00  0.443000438E+00
  0.814630000E-01  0.410665370E-01
   d   4
  0.190000000E+01 -0.438379972E+00
  0.665000000E+00 -0.592678139E+00
  0.232750000E+00  0.867243576E+00
  0.814630000E-01  0.170171494E+00
 
   7
   s  14
  0.505575010E+05  0.112887400E-03
  0.752478560E+04  0.529537300E-03
  0.169432760E+04  0.245003830E-02
  0.472822790E+03  0.100539847E-01
  0.151710750E+03  0.354539806E-01
  0.539187460E+02  0.104407109E+00
  0.206593110E+02  0.241289492E+00
  0.838397600E+01  0.383422548E+00
  0.357701500E+01  0.307851439E+00
  0.154711800E+01  0.687244299E-01
  0.613013000E+00  0.222444500E-03
  0.246068000E+00  0.197674890E-02
  0.990870000E-01  0.205785940E-02
  0.346800000E-01  0.418202000E-03
   s  14
  0.505575010E+05 -0.250742000E-04
  0.752478560E+04 -0.117594500E-03
  0.169432760E+04 -0.545627500E-03
  0.472822790E+03 -0.224507710E-02
  0.151710750E+03 -0.804347180E-02
  0.539187460E+02 -0.244258871E-01
  0.206593110E+02 -0.613679118E-01
  0.838397600E+01 -0.117776784E+00
  0.357701500E+01 -0.155048778E+00
  0.154711800E+01 -0.193331686E-01
  0.613013000E+00  0.399693068E+00
  0.246068000E+00  0.558942095E+00
  0.990870000E-01  0.171119502E+00
  0.346800000E-01  0.745624460E-02
   s  14
  0.505575010E+05  0.161788000E-04
  0.752478560E+04  0.749712000E-04
  0.169432760E+04  0.357346700E-03
  0.472822790E+03  0.143493160E-02
  0.151710750E+03  0.550867790E-02
  0.539187460E+02  0.169149690E-01
  0.206593110E+02  0.514166524E-01
  0.838397600E+01  0.113734374E+00
  0.357701500E+01  0.233718394E+00
  0.154711800E+01 -0.718378257E-01
  0.613013000E+00 -0.104909087E+01
  0.246068000E+00 -0.666273399E-01
  0.990870000E-01  0.101199938E+01
  0.346800000E-01  0.165604639E+00
   s  14
  0.505575010E+05 -0.455357000E-04
  0.752478560E+04 -0.204647000E-03
  0.169432760E+04 -0.102646010E-02
  0.472822790E+03 -0.377644400E-02
  0.151710750E+03 -0.156602173E-01
  0.539187460E+02 -0.398609476E-01
  0.206593110E+02 -0.129730088E+00
  0.838397600E+01 -0.159269297E+00
  0.357701500E+01 -0.482172080E+00
  0.154711800E+01  0.108542566E+01
  0.613013000E+00  0.104686870E+01
  0.246068000E+00 -0.256795297E+01
  0.990870000E-01  0.106166880E+01
  0.346800000E-01  0.458331291E+00
   p   9
  0.833331550E+02  0.134465600E-02
  0.195576110E+02  0.102355550E-01
  0.608036500E+01  0.452006710E-01
  0.217931700E+01  0.141075620E+00
  0.865150000E+00  0.304738808E+00
  0.361944000E+00  0.399528101E+00
  0.154740000E+00  0.271916343E+00
  0.654290000E-01  0.585766933E-01
  0.229000000E-01 -0.126381300E-03
   p   9
  0.833331550E+02 -0.177158850E-02
  0.195576110E+02 -0.145621810E-01
  0.608036500E+01 -0.574573357E-01
  0.217931700E+01 -0.212658285E+00
  0.865150000E+00 -0.527171292E+00
  0.361944000E+00 -0.929697730E-01
  0.154740000E+00  0.663003167E+00
  0.654290000E-01  0.336087779E+00
  0.229000000E-01  0.546952440E-02
   p   9
  0.833331550E+02  0.378619050E-02
  0.195576110E+02  0.363883533E-01
  0.608036500E+01  0.150643567E+00
  0.217931700E+01  0.666891458E+00
  0.865150000E+00  0.173724026E+00
  0.361944000E+00 -0.128022440E+01
  0.154740000E+00  0.396386442E+00
  0.654290000E-01  0.524464184E+00
  0.229000000E-01  0.622950920E-02
   d   4
  0.190000000E+01  0.142451805E+00
  0.665000000E+00  0.559197302E+00
  0.232750000E+00  0.443000438E+00
  0.814630000E-01  0.410665370E-01
   d   4
  0.190000000E+01 -0.438379972E+00
  0.665000000E+00 -0.592678139E+00
  0.232750000E+00  0.867243576E+00
  0.814630000E-01  0.170171494E+00
 
   8
   s   8
  0.188614450E+03  0.963850003E-03
  0.282765960E+02  0.749196002E-02
  0.642483000E+01  0.375954101E-01
  0.181504100E+01  0.143394980E+00
  0.591063000E+00  0.348636301E+00
  0.212149000E+00  0.438297361E+00
  0.798910000E-01  0.165106610E+00
  0.279620000E-01  0.210228701E-01
   s   8
  0.188614450E+03 -0.131189999E-02
  0.282765960E+02 -0.103451000E-01
  0.642483000E+01 -0.504952998E-01
  0.181504100E+01 -0.207385499E+00
  0.591063000E+00 -0.435088498E+00
  0.212149000E+00 -0.247296999E-01
  0.798910000E-01  0.322525989E+00
  0.279620000E-01  0.707275377E+00
   p   4
  0.230500000E+01  0.112790190E+00
  0.806750000E+00  0.418507528E+00
  0.282362000E+00  0.470007728E+00
  0.988270000E-01  0.182626029E+00
 
   9
   s   8
  0.188614450E+03  0.963850003E-03
  0.282765960E+02  0.749196002E-02
  0.642483000E+01  0.375954101E-01
  0.181504100E+01  0.143394980E+00
  0.591063000E+00  0.348636301E+00
  0.212149000E+00  0.438297361E+00
  0.798910000E-01  0.165106610E+00
  0.279620000E-01  0.210228701E-01
   s   8
  0.188614450E+03 -0.131189999E-02
  0.282765960E+02 -0.103451000E-01
  0.642483000E+01 -0.504952998E-01
  0.181504100E+01 -0.207385499E+00
  0.591063000E+00 -0.435088498E+00
  0.212149000E+00 -0.247296999E-01
  0.798910000E-01  0.322525989E+00
  0.279620000E-01  0.707275377E+00
   p   4
  0.230500000E+01  0.112790190E+00
  0.806750000E+00  0.418507528E+00
  0.282362000E+00  0.470007728E+00
  0.988270000E-01  0.182626029E+00
 
  10
   s   8
  0.188614450E+03  0.963850003E-03
  0.282765960E+02  0.749196002E-02
  0.642483000E+01  0.375954101E-01
  0.181504100E+01  0.143394980E+00
  0.591063000E+00  0.348636301E+00
  0.212149000E+00  0.438297361E+00
  0.798910000E-01  0.165106610E+00
  0.279620000E-01  0.210228701E-01
   s   8
  0.188614450E+03 -0.131189999E-02
  0.282765960E+02 -0.103451000E-01
  0.642483000E+01 -0.504952998E-01
  0.181504100E+01 -0.207385499E+00
  0.591063000E+00 -0.435088498E+00
  0.212149000E+00 -0.247296999E-01
  0.798910000E-01  0.322525989E+00
  0.279620000E-01  0.707275377E+00
   p   4
  0.230500000E+01  0.112790190E+00
  0.806750000E+00  0.418507528E+00
  0.282362000E+00  0.470007728E+00
  0.988270000E-01  0.182626029E+00
 
  11
   s   8
  0.188614450E+03  0.963850003E-03
  0.282765960E+02  0.749196002E-02
  0.642483000E+01  0.375954101E-01
  0.181504100E+01  0.143394980E+00
  0.591063000E+00  0.348636301E+00
  0.212149000E+00  0.438297361E+00
  0.798910000E-01  0.165106610E+00
  0.279620000E-01  0.210228701E-01
   s   8
  0.188614450E+03 -0.131189999E-02
  0.282765960E+02 -0.103451000E-01
  0.642483000E+01 -0.504952998E-01
  0.181504100E+01 -0.207385499E+00
  0.591063000E+00 -0.435088498E+00
  0.212149000E+00 -0.247296999E-01
  0.798910000E-01  0.322525989E+00
  0.279620000E-01  0.707275377E+00
   p   4
  0.230500000E+01  0.112790190E+00
  0.806750000E+00  0.418507528E+00
  0.282362000E+00  0.470007728E+00
  0.988270000E-01  0.182626029E+00
 
  12
   s   8
  0.188614450E+03  0.963850003E-03
  0.282765960E+02  0.749196002E-02
  0.642483000E+01  0.375954101E-01
  0.181504100E+01  0.143394980E+00
  0.591063000E+00  0.348636301E+00
  0.212149000E+00  0.438297361E+00
  0.798910000E-01  0.165106610E+00
  0.279620000E-01  0.210228701E-01
   s   8
  0.188614450E+03 -0.131189999E-02
  0.282765960E+02 -0.103451000E-01
  0.642483000E+01 -0.504952998E-01
  0.181504100E+01 -0.207385499E+00
  0.591063000E+00 -0.435088498E+00
  0.212149000E+00 -0.247296999E-01
  0.798910000E-01  0.322525989E+00
  0.279620000E-01  0.707275377E+00
   p   4
  0.230500000E+01  0.112790190E+00
  0.806750000E+00  0.418507528E+00
  0.282362000E+00  0.470007728E+00
  0.988270000E-01  0.182626029E+00
 
  13
   s  14
  0.747617150E+05  0.118260000E-03
  0.111236540E+05  0.517289998E-03
  0.251268570E+04  0.226665999E-02
  0.703777290E+03  0.914528997E-02
  0.225478790E+03  0.323934299E-01
  0.796158100E+02  0.977079297E-01
  0.302372830E+02  0.231703679E+00
  0.122636220E+02  0.376889889E+00
  0.526508600E+01  0.317742069E+00
  0.233347100E+01  0.821130897E-01
  0.901856000E+00  0.331208999E-02
  0.358336000E+00  0.372081999E-02
  0.141093000E+00  0.316541999E-02
  0.493830000E-01  0.459579998E-03
   s  14
  0.747617150E+05 -0.270700001E-04
  0.111236540E+05 -0.118370000E-03
  0.251268570E+04 -0.520380002E-03
  0.703777290E+03 -0.210293001E-02
  0.225478790E+03 -0.756820003E-02
  0.796158100E+02 -0.234676701E-01
  0.302372830E+02 -0.604290102E-01