   This run of MOLCAS is using the pymolcas driver

                             OPE
                             OPE          NMOL  CASOP  ENMOLC A   SO
                 OPE        NMOLC        AS  OP EN  MO LC     AS  OP
                OPENM       OL CA        SO  PE NM  OL CA     SOP EN
                OP EN      MO   LC       AS  OP ENMOL  CASO   PENMOL
                OP  EN     MO   LC       AS  OP EN     MO     LC ASO
               OP   E  NMOL  C  AS       OP  EN MO     LC     AS  OP
               OP  E   NMO   LC AS        OPEN  MO     LCASOP EN   M
               O  PEN   MO  LCA  SO
            OPE   NMO   L   CAS    OP
        OPENMOL  CASOP     ENMOL   CASOPE
     OPENMOLCA   SOPENMOLCASOPEN   MOLCASOPE
    OPENMOLCAS   OP           EN   MOL    CAS
    OPENMOLCAS       OP  ENM        O     LCA
    OPENMOLCAS    OPEN  MOLCASO     P  E  NMO
    OPENMOLCAS     OP               E  N  MOL
    OPENMOLCA   SO           PENM   O  L  CAS    OPEN    MO    LCAS
    OPENMOLCA   SOP           ENM   O  L  CAS   OP  EN  MOLC  AS   O
    OPENMOLCA   SOPE           NM      O  LCA   S      OP  EN MO
    OPENMOLC                AS         O  PEN   M      OL  CA  SOPE
    OPENMO        LCASOPE  NMOL        C  ASO   P      ENMOLC     AS
    OPE     NMO      LCA  SO     P     E   NM   OL  CA SO  PE N   MO
          OPENMOLCA            SOPE   NMO        LCAS  O    P  ENMO
     OPENMOLCASOPENMOLCASOPENMOLCASOPENMOLCA
        OPENMOLCASOPENMOLCASOPENMOLCASOPE
            OPENMOLCASOPENMOLCASOPENM
               OPENMOLCASOPENMOLCA        version: 21.02
                   OPENMOLCASO
                       OPE                tag: dirty

 OpenMolcas is free software; you can redistribute it and/or modify it
 under the terms of the GNU Lesser General Public License version 2.1.
 OpenMolcas is distributed in the hope that it will be useful, but it
 is provided "as is" and without any express or implied warranties.
 For more details see the full text of the license in the file
 LICENSE or in <http://www.gnu.org/licenses/>.

                 Copyright (C) The OpenMolcas Authors
           For the author list and the recommended citation,
                   consult the file CONTRIBUTORS.md

           *************************************************
           * pymolcas version py2.08                       *
           *   build dcc119e204a98b51f6cd56c68b93bfa2      *
           *   (after the EMIL interpreter by V. Veryazov) *
           *************************************************

configuration info
------------------
Host name: node20 (Linux)
C Compiler ID: GNU
C flags: -std=gnu99 -fopenmp
Fortran Compiler ID: GNU
Fortran flags: -fno-aggressive-loop-optimizations -cpp -fdefault-integer-8 -fopenmp
Definitions: _MOLCAS_;_I8_;_LINUX_;_MOLCAS_MPP_;_SCALAPACK_;_GA_
Parallel: ON (GA=ON)


   ---------------------------------------------------------------------------------------------------------
  |
  |           Project: FC
  |    Submitted from: /scratch/montorsi_molcas_731046
  |      Scratch area: /scratch/montorsi_tmp_731046
  |   Save outputs to: /scratch/montorsi_molcas_731046
  |            Molcas: /usr/local/Openmolcas_21.04_parallel_devtoolset7_ga-5.6.5_openmpi-4.0.2_CIITER_2000
  |
  | Scratch area is NOT empty
  |
  |    MOLCAS_DRIVER = /usr/local/Openmolcas_19.11_parallel_devtoolset7_ga-5.6.5_openmpi-4.0.2/sbin/pymolcas
  |    MOLCAS_NPROCS = 4
  |    MOLCAS_SOURCE = /usr/local/Openmolcas_21.04_parallel_devtoolset7_ga-5.6.5_openmpi-4.0.2_CIITER_2000
  | MOLCAS_STRUCTURE = 0
  |
   ---------------------------------------------------------------------------------------------------------

++ ---------   Input file   ---------

>>> EXPORT MOLCAS_MEM = 16000

&GATEWAY
        coord=$HomeDir/GEOM_0.XYZ
        basis=ANO-RCC, C.ano-rcc.Roos.14s9p4d3f2g.4s3p2d, N.ano-rcc.Roos.14s9p4d3f2g.4s3p2d1f, H.ano-rcc.Roos.8s4p3d1f.2s1p
    group=nosymm
    RICD

&SEWARD
    DOANAL

&RASSCF
        FILEORB
        FC.RasOrb
        inactive=38
        nactel=20 1 4
        ras1=1
        ras2=9
        ras3=7
        CIRoot
        12 12 1
        thrs=1.0D-06 1.0D-02 1.0D-02
        NOQUNE
  Supsym
        1
        1 39

&GRID_IT
 name=valence
 noluscus
 ascii
 sparse
 select=1:33-60

>>> COPY $WorkDir/$Project.JobIph $HomeDir/valence.JobIph

>>> COPY $WorkDir/$Project.JobIph JOBIPH

&CASPT2
        multistate = 12 1 2 3 4 5 6 7 8 9 10 11 12
        IMAG = 0.5
        IPEA = 0.0
        NOPROP
        FROZEN
        0 0
        CONV = 1.0d-04
        MAXI
        200

>>> COPY $WorkDir/$Project.JobMix $HomeDir/valence.JobMix

-- ----------------------------------

>>> EXPORT MOLCAS_MEM = 16000

--- Start Module: gateway at Sun Sep  5 07:29:10 2021 ---

()()()()()()()()()()()()()()()()()()()()()()()()()()()()()()()()()()()()()()()()()()()()()()()()()()

                                              &GATEWAY

             launched 4 MPI processes, running in PARALLEL mode (work-sharing enabled)
                        available to each process: 16 GB of memory, 1 thread
                                         master pid: 285641
()()()()()()()()()()()()()()()()()()()()()()()()()()()()()()()()()()()()()()()()()()()()()()()()()()


++    Symmetry information:
      ---------------------

                    Character Table for C1 

                             E  
                    a        1  x, y, xy, Rz, z, xz, Ry, yz, Rx, I
--


++    Basis set information:
      ----------------------


      Basis set label: N.ANO-RCC...4S3P2D1F......

      Electronic valence basis set:
      ------------------
      Associated Effective Charge   7.000000 au
      Associated Actual Charge      7.000000 au
      Nuclear Model: Point charge

      Shell  nPrim  nBasis  Cartesian Spherical Contaminant
         s      14       4        X                  
         p       9       3        X                  
         d       4       2                 X         
         f       3       1                 X         


      Basis set label: C.ANO-RCC...4S3P2D......

      Electronic valence basis set:
      ------------------
      Associated Effective Charge   6.000000 au
      Associated Actual Charge      6.000000 au
      Nuclear Model: Point charge

      Shell  nPrim  nBasis  Cartesian Spherical Contaminant
         s      14       4        X                  
         p       9       3        X                  
         d       4       2                 X         


      Basis set label: H.ANO-RCC...2S1P......

      Electronic valence basis set:
      ------------------
      Associated Effective Charge   1.000000 au
      Associated Actual Charge      1.000000 au
      Nuclear Model: Point charge

      Shell  nPrim  nBasis  Cartesian Spherical Contaminant
         s       8       2        X                  
         p       4       1        X                  


      Basis set label: N.ANO-RCC...4S3P2D1F......

      Electronic valence basis set:
      ------------------
      Associated Effective Charge   7.000000 au
      Associated Actual Charge      7.000000 au
      Nuclear Model: Point charge

      Shell  nPrim  nBasis  Cartesian Spherical Contaminant
         s      14       4        X                  
         p       9       3        X                  
         d       4       2                 X         
         f       3       1                 X         


      Basis set label: C.ANO-RCC...4S3P2D......

      Electronic valence basis set:
      ------------------
      Associated Effective Charge   6.000000 au
      Associated Actual Charge      6.000000 au
      Nuclear Model: Point charge

      Shell  nPrim  nBasis  Cartesian Spherical Contaminant
         s      14       4        X                  
         p       9       3        X                  
         d       4       2                 X         


      Basis set label: H.ANO-RCC...2S1P......

      Electronic valence basis set:
      ------------------
      Associated Effective Charge   1.000000 au
      Associated Actual Charge      1.000000 au
      Nuclear Model: Point charge

      Shell  nPrim  nBasis  Cartesian Spherical Contaminant
         s       8       2        X                  
         p       4       1        X                  
--


++    Molecular structure info:
      -------------------------

                    ************************************************ 
                    **** Cartesian Coordinates / Bohr, Angstrom **** 
                    ************************************************ 

     Center  Label                x              y              z                     x              y              z
        1      N1              -0.037572       0.000000       1.211063             -0.019882       0.000000       0.640867
        2      C2               2.401602       0.000000       2.345517              1.270873       0.000000       1.241194
        3      C3               2.396428       0.000000       5.010923              1.268135       0.000000       2.651666
        4      C4               4.692746       0.000000       6.343219              2.483294       0.000000       3.356687
        5      C5               6.999205       0.000000       5.012141              3.703820       0.000000       2.652311
        6      C6               6.992159       0.000000       2.339672              3.700091       0.000000       1.238101
        7      C7               4.710983       0.000000       0.996532              2.492945       0.000000       0.527342
        8      H8               0.579983       0.000000       5.996551              0.306914       0.000000       3.173238
        9      H9               4.685230       0.000000       8.410642              2.479317       0.000000       4.450720
       10      H10              8.791900       0.000000       6.041024              4.652473       0.000000       3.196772
       11      H11              8.785136       0.000000       1.308503              4.648894       0.000000       0.692430
       12      H12              4.681590       0.000000      -1.065341              2.477391       0.000000      -0.563754
       13      N13              0.037572       0.000000      -1.211063              0.019882       0.000000      -0.640867
       14      C14             -2.401602       0.000000      -2.345517             -1.270873       0.000000      -1.241194
       15      C15             -2.396428       0.000000      -5.010923             -1.268135       0.000000      -2.651666
       16      C16             -4.692746       0.000000      -6.343219             -2.483294       0.000000      -3.356687
       17      C17             -6.999205       0.000000      -5.012141             -3.703820       0.000000      -2.652311
       18      C18             -6.992159       0.000000      -2.339672             -3.700091       0.000000      -1.238101
       19      C19             -4.710983       0.000000      -0.996532             -2.492945       0.000000      -0.527342
       20      H20             -0.579983       0.000000      -5.996551             -0.306914       0.000000      -3.173238
       21      H21             -4.685230       0.000000      -8.410642             -2.479317       0.000000      -4.450720
       22      H22             -8.791900       0.000000      -6.041024             -4.652473       0.000000      -3.196772
       23      H23             -8.785136       0.000000      -1.308503             -4.648894       0.000000      -0.692430
       24      H24             -4.681590       0.000000       1.065341             -2.477391       0.000000       0.563754

                    ************************************************* 
                    **** InterNuclear Distances / Bohr, Angstrom **** 
                    ************************************************* 

     Atom centers         Bohr        Angstrom
   12 H12       7 C7      2.062082        1.091207
   24 H24      19 C19   
    8 H8        3 C3      2.066624        1.093610
   20 H20      15 C15   
   10 H10       5 C5      2.066967        1.093792
   22 H22      17 C17   
    9 H9        4 C4      2.067436        1.094040
   21 H21      16 C16   
   11 H11       6 C6      2.068352        1.094525
   23 H23      18 C18   
   13 N13       1 N1      2.423292        1.282351
    7 C7        6 C6      2.647222        1.400850
   19 C19      18 C18   
    4 C4        3 C3      2.654824        1.404872
   16 C16      15 C15   
    5 C5        4 C4      2.662992        1.409195
   17 C17      16 C16   
    3 C3        2 C2      2.665411        1.410475
   15 C15      14 C14   
    6 C6        5 C5      2.672479        1.414215
   18 C18      17 C17   
    7 C7        2 C2      2.674510        1.415290
   19 C19      14 C14   
    2 C2        1 N1      2.690084        1.423531
   14 C14      13 N13   
    8 H8        2 C2      4.080238        2.159169
   20 H20      14 C14   
   11 H11       7 C7      4.086080        2.162260
   23 H23      19 C19   
    9 H9        3 C3      4.098379        2.168769
   21 H21      15 C15   
   12 H12       2 C2      4.102718        2.171065
   24 H24      14 C14   
   10 H10       4 C4      4.110278        2.175066
   22 H22      16 C16   
    9 H9        5 C5      4.111482        2.175703
   21 H21      17 C17   
   11 H11       5 C5      4.111750        2.175844
   23 H23      17 C17   
   12 H12       6 C6      4.114953        2.177539
   24 H24      18 C18   
   10 H10       6 C6      4.115711        2.177940
   22 H22      18 C18   
    8 H8        4 C4      4.127347        2.184098
   20 H20      16 C16   
   13 N13       2 C2      4.270585        2.259896
   14 C14       1 N1    
    3 C3        1 N1      4.512570        2.387949
   15 C15      13 N13   
    6 C6        2 C2      4.590560        2.429220
   18 C18      14 C14   
    5 C5        3 C3      4.602778        2.435685
   17 C17      15 C15   
    4 C4        2 C2      4.607707        2.438294
   16 C16      14 C14   
    6 C6        4 C4      4.616892        2.443154
   18 C18      16 C16   
    7 C7        5 C5      4.621805        2.445754
   19 C19      17 C17   
    7 C7        3 C3      4.633843        2.452124
   19 C19      15 C15   
   13 N13      12 H12     4.646305        2.458719
   24 H24       1 N1    
   11 H11      10 H10     4.732525        2.504345
   23 H23      22 H22   
   12 H12      11 H11     4.740699        2.508670
   24 H24      23 H23   
   10 H10       9 H9      4.741290        2.508982
   22 H22      21 H21   
    7 C7        1 N1      4.753398        2.515390
   19 C19      13 N13   
    9 H9        8 H8      4.762445        2.520178
   21 H21      20 H20   
    8 H8        1 N1      4.825170        2.553370
   20 H20      13 N13   
   13 N13       7 C7      5.168583        2.735097
   19 C19       1 N1    
   12 H12       1 N1      5.239514        2.772631
   24 H24      13 N13   
    5 C5        2 C2      5.314964        2.812558
   17 C17      14 C14   
    6 C6        3 C3      5.315668        2.812930
   18 C18      15 C15   
    7 C7        4 C4      5.346718        2.829361
   19 C19      16 C16   
--


            Nuclear Potential Energy            745.16627548 au

--- Stop Module: gateway at Sun Sep  5 07:29:15 2021 /rc=_RC_ALL_IS_WELL_ ---
*** files: FC.RICDLib xmldump
    saved to directory /scratch/montorsi_molcas_731046
--- Module gateway spent 5 seconds ---

--- Start Module: seward at Sun Sep  5 07:29:17 2021 ---

()()()()()()()()()()()()()()()()()()()()()()()()()()()()()()()()()()()()()()()()()()()()()()()()()()

                                              &SEWARD

             launched 4 MPI processes, running in PARALLEL mode (work-sharing enabled)
                        available to each process: 16 GB of memory, 1 thread
                                         master pid: 285913
()()()()()()()()()()()()()()()()()()()()()()()()()()()()()()()()()()()()()()()()()()()()()()()()()()

               SEWARD will generate:
                  Multipole Moment integrals up to order  2
                  Kinetic Energy integrals
                  Nuclear Attraction integrals (point charge)
                  One-Electron Hamiltonian integrals
                  Velocity integrals
                  Relativistic Douglas-Kroll-Hess integrals:
                    - Parametrization         : EXP
                    - DKH order of Hamiltonian: 2
                    - DKH order of Properties : 0
                         - multipole moment operators
                         - electric potential operators
                         - contact operators
                  Orbital angular momentum around ( 0.0000  0.0000 -0.0000 )
                  Velocity quadrupole around ( 0.0000  0.0000 -0.0000 )
                  Atomic mean-field integrals
                  RI decomposed two-electron repulsion integrals stored Cholesky style
                   - acCD auxiliary basis
                   - CD Threshold:   0.10E-03

                   Integrals are discarded if absolute value <: 0.10E-13
                   Integral cutoff threshold is set to       <: 0.10E-15

            Nuclear Potential Energy            745.16627548 au


      Basis set specifications :
      Symmetry species         a  
      Basis functions          386


  Input file to MOLDEN was generated!

--- Stop Module: seward at Sun Sep  5 07:30:09 2021 /rc=_RC_ALL_IS_WELL_ ---
*** files: FC.GssOrb FC.guessorb.molden xmldump
    saved to directory /scratch/montorsi_molcas_731046
--- Module seward spent 52 seconds ---

*** symbolic link created: INPORB -> FC.GssOrb
--- Start Module: rasscf at Sun Sep  5 07:30:11 2021 ---

()()()()()()()()()()()()()()()()()()()()()()()()()()()()()()()()()()()()()()()()()()()()()()()()()()

                                              &RASSCF

             launched 4 MPI processes, running in PARALLEL mode (work-sharing enabled)
                        available to each process: 16 GB of memory, 1 thread
                                         master pid: 286218
()()()()()()()()()()()()()()()()()()()()()()()()()()()()()()()()()()()()()()()()()()()()()()()()()()

 ###############################################################################
 ###############################################################################
 ###                                                                         ###
 ###                                                                         ###
 ###    WARNING: Had to guess the spin.                                      ###
 ###                                                                         ###
 ###                                                                         ###
 ###############################################################################
 ###############################################################################
  Warning: no input and no reliable source
  for the spin multiplicity.
  Guess ISPIN=                    1

      Header of the ONEINT file:
      --------------------------
      
      Integrals generated by Gateway/Seward, Sun Sep  5 07:29:19 2021


      OrdInt status: non-squared


      Cartesian coordinates in Angstrom:
      -----------------------------------------------------
      No.  Label        X            Y            Z        
      -----------------------------------------------------
       1   N1        -0.01988200   0.00000000   0.64086700
       2   C2         1.27087300   0.00000000   1.24119400
       3   C3         1.26813500   0.00000000   2.65166600
       4   C4         2.48329400   0.00000000   3.35668700
       5   C5         3.70382000   0.00000000   2.65231100
       6   C6         3.70009100   0.00000000   1.23810100
       7   C7         2.49294500   0.00000000   0.52734200
       8   H8         0.30691400   0.00000000   3.17323800
       9   H9         2.47931700   0.00000000   4.45072000
      10   H10        4.65247300   0.00000000   3.19677200
      11   H11        4.64889400   0.00000000   0.69243000
      12   H12        2.47739100   0.00000000  -0.56375400
      13   N13        0.01988200   0.00000000  -0.64086700
      14   C14       -1.27087300   0.00000000  -1.24119400
      15   C15       -1.26813500   0.00000000  -2.65166600
      16   C16       -2.48329400   0.00000000  -3.35668700
      17   C17       -3.70382000   0.00000000  -2.65231100
      18   C18       -3.70009100   0.00000000  -1.23810100
      19   C19       -2.49294500   0.00000000  -0.52734200
      20   H20       -0.30691400   0.00000000  -3.17323800
      21   H21       -2.47931700   0.00000000  -4.45072000
      22   H22       -4.65247300   0.00000000  -3.19677200
      23   H23       -4.64889400   0.00000000  -0.69243000
      24   H24       -2.47739100   0.00000000   0.56375400
      -----------------------------------------------------
      Nuclear repulsion energy =  745.16627548

++    Wave function specifications:
      -----------------------------

      Number of closed shell electrons          76
      Number of electrons in active shells      20
      Max number of holes in RAS1 space          1
      Max nr of electrons in RAS3 space          4
      Number of inactive orbitals               38
      Number of active orbitals                 17
      Number of secondary orbitals             331
      Spin quantum number                      0.0
      State symmetry                             1
--

++    Orbital specifications:
      -----------------------

      Symmetry species                           1
                                                 a
      Frozen orbitals                            0
      Inactive orbitals                         38
      Active orbitals                           17
      RAS1 orbitals                              1
      RAS2 orbitals                              9
      RAS3 orbitals                              7
      Secondary orbitals                       331
      Deleted orbitals                           0
      Number of basis functions                386
--

++    CI expansion specifications:
      ----------------------------

      Number of CSFs                        403250
      Number of determinants                794060
      Number of root(s) required                12
      Root chosen for geometry opt.             12
      CI roots used                              1     2     3     4     5     6     7     8     9    10
                                                11    12
      weights                                0.083 0.083 0.083 0.083 0.083 0.083 0.083 0.083 0.083 0.083
                                             0.083 0.083
      highest root included in the CI           12
      max. size of the explicit Hamiltonian    200
--

++    Optimization specifications:
      ----------------------------

      RASSCF algorithm: LK RI/DF
      Maximum number of macro iterations      2000
      Maximum number of SX iterations          100
      Threshold for RASSCF energy            0.100E-05
      Threshold for max MO rotation          0.100E-01
      Threshold for max BLB element          0.100E-01
      Level shift parameter                  0.500E+00
      Supersymmetry is used to disable selected orbital rotations
      Supersymmetry vector for symmetry species  1
        0  0  0  0  0  0  0  0  0  0  0  0  0  0  0  0  0  0  0  0  0  0  0  0  0  0  0  0  0  0
        0  0  0  0  0  0  0  0  1  0  0  0  0  0  0  0  0  0  0  0  0  0  0  0  0  0  0  0  0  0
        0  0  0  0  0  0  0  0  0  0  0  0  0  0  0  0  0  0  0  0  0  0  0  0  0  0  0  0  0  0
        0  0  0  0  0  0  0  0  0  0  0  0  0  0  0  0  0  0  0  0  0  0  0  0  0  0  0  0  0  0
        0  0  0  0  0  0  0  0  0  0  0  0  0  0  0  0  0  0  0  0  0  0  0  0  0  0  0  0  0  0
        0  0  0  0  0  0  0  0  0  0  0  0  0  0  0  0  0  0  0  0  0  0  0  0  0  0  0  0  0  0
        0  0  0  0  0  0  0  0  0  0  0  0  0  0  0  0  0  0  0  0  0  0  0  0  0  0  0  0  0  0
        0  0  0  0  0  0  0  0  0  0  0  0  0  0  0  0  0  0  0  0  0  0  0  0  0  0  0  0  0  0
        0  0  0  0  0  0  0  0  0  0  0  0  0  0  0  0  0  0  0  0  0  0  0  0  0  0  0  0  0  0
        0  0  0  0  0  0  0  0  0  0  0  0  0  0  0  0  0  0  0  0  0  0  0  0  0  0  0  0  0  0
        0  0  0  0  0  0  0  0  0  0  0  0  0  0  0  0  0  0  0  0  0  0  0  0  0  0  0  0  0  0
        0  0  0  0  0  0  0  0  0  0  0  0  0  0  0  0  0  0  0  0  0  0  0  0  0  0  0  0  0  0
        0  0  0  0  0  0  0  0  0  0  0  0  0  0  0  0  0  0  0  0  0  0  0  0  0  0
--

      The MO-coefficients are taken from the file:
      /scratch/montorsi_molcas_731046/FC.RasOrb                                                                                       
      Title: RASSCF average (pseudo-natural) orbitals                                      

      Total molecular charge    0.00

      ************************************************************************************************************************
      *                                                                                                                      *
      *                                            Wave function control section                                             *
      *                                                                                                                      *
      ************************************************************************************************************************


                                         RASSCF iterations: Energy and convergence statistics
                                         ----------------------------------------------------

      Iter CI   SX   CI       RASSCF       Energy    max ROT     max BLB   max BLB  Level Ln srch  Step   QN   Walltime
          iter iter root      energy       change     param      element    value   shift minimum  type update hh:mm:ss
        No convergence in the CI section: MAXJT will be increased to                    24
 Nr of preliminary CI iterations:  11
 ###############################################################################
 ###############################################################################
 ###                                                                         ###
 ###                                                                         ###
 ###    WARNING: Problems in orbital optimization.                           ###
 ###                                                                         ###
 ###                                                                         ###
 ###############################################################################
 ###############################################################################
  Warning: In symmetry  1, orbital p=  39 has diagonal density matrix element D(p,p) close to two. (2 - D(p,p))=  0.277544D-06
        1   7    6    0  -569.49239282    0.00E+00  -0.51E-02   44 108 1 -0.26E-02   0.46   0.00    SX    NO    0:09:24
 ###############################################################################
 ###############################################################################
 ###                                                                         ###
 ###                                                                         ###
 ###    WARNING: Problems in orbital optimization.                           ###
 ###                                                                         ###
 ###                                                                         ###
 ###############################################################################
 ###############################################################################
  Warning: In symmetry  1, orbital p=  39 has diagonal density matrix element D(p,p) close to two. (2 - D(p,p))=  0.276196D-06
        2   3    5    0  -569.49251745   -0.12E-03*  0.18E-02   44 108 1 -0.82E-03   0.46   0.00    SX    NO    0:01:57
 ###############################################################################
 ###############################################################################
 ###                                                                         ###
 ###                                                                         ###
 ###    WARNING: Problems in orbital optimization.                           ###
 ###                                                                         ###
 ###                                                                         ###
 ###############################################################################
 ###############################################################################
  Warning: In symmetry  1, orbital p=  39 has diagonal density matrix element D(p,p) close to two. (2 - D(p,p))=  0.275181D-06
        3   3    5    0  -569.49254362   -0.26E-04*  0.75E-03   44 108 1 -0.53E-03   0.46   0.00    SX    NO    0:02:17
 ###############################################################################
 ###############################################################################
 ###                                                                         ###
 ###                                                                         ###
 ###    WARNING: Problems in orbital optimization.                           ###
 ###                                                                         ###
 ###                                                                         ###
 ###############################################################################
 ###############################################################################
  Warning: In symmetry  1, orbital p=  39 has diagonal density matrix element D(p,p) close to two. (2 - D(p,p))=  0.271866D-06
        4  20    5    0  -569.49259014   -0.47E-04*  0.13E-02   44  74 1  0.41E-03   0.46   0.00    SX    NO    0:13:36
 ###############################################################################
 ###############################################################################
 ###                                                                         ###
 ###                                                                         ###
 ###    WARNING: Problems in orbital optimization.                           ###
 ###                                                                         ###
 ###                                                                         ###
 ###############################################################################
 ###############################################################################
  Warning: In symmetry  1, orbital p=  39 has diagonal density matrix element D(p,p) close to two. (2 - D(p,p))=  0.271877D-06
        5  13    5    0  -569.49259465   -0.45E-05*  0.67E-03   40  49 1  0.21E-03   0.46   0.00    SX    NO    0:05:58
 ###############################################################################
 ###############################################################################
 ###                                                                         ###
 ###                                                                         ###
 ###    WARNING: Problems in orbital optimization.                           ###
 ###                                                                         ###
 ###                                                                         ###
 ###############################################################################
 ###############################################################################
  Warning: In symmetry  1, orbital p=  39 has diagonal density matrix element D(p,p) close to two. (2 - D(p,p))=  0.271633D-06
        6  22    5    0  -569.49259711   -0.25E-05* -0.71E-03   40  49 1  0.19E-03   0.46   0.00    SX    NO    0:11:03
 ###############################################################################
 ###############################################################################
 ###                                                                         ###
 ###                                                                         ###
 ###    WARNING: Problems in orbital optimization.                           ###
 ###                                                                         ###
 ###                                                                         ###
 ###############################################################################
 ###############################################################################
  Warning: In symmetry  1, orbital p=  39 has diagonal density matrix element D(p,p) close to two. (2 - D(p,p))=  0.271332D-06
        7  26    5    0  -569.49259958   -0.25E-05* -0.15E-02   53 100 1  0.33E-03   0.46   0.00    SX    NO    0:11:24
 ###############################################################################
 ###############################################################################
 ###                                                                         ###
 ###                                                                         ###
 ###    WARNING: Problems in orbital optimization.                           ###
 ###                                                                         ###
 ###                                                                         ###
 ###############################################################################
 ###############################################################################
  Warning: In symmetry  1, orbital p=  39 has diagonal density matrix element D(p,p) close to two. (2 - D(p,p))=  0.271011D-06
        8  27    5    0  -569.49260655   -0.70E-05*  0.22E-02   53 100 1  0.50E-03   0.46   0.00    SX    NO    0:12:46
 ###############################################################################
 ###############################################################################
 ###                                                                         ###
 ###                                                                         ###
 ###    WARNING: Problems in orbital optimization.                           ###
 ###                                                                         ###
 ###                                                                         ###
 ###############################################################################
 ###############################################################################
  Warning: In symmetry  1, orbital p=  39 has diagonal density matrix element D(p,p) close to two. (2 - D(p,p))=  0.271368D-06
        9  26    5    0  -569.49261839   -0.12E-04*  0.19E-02   53 100 1  0.43E-03   0.46   0.00    SX    NO    0:12:31
 ###############################################################################
 ###############################################################################
 ###                                                                         ###
 ###                                                                         ###
 ###    WARNING: Problems in orbital optimization.                           ###
 ###                                                                         ###
 ###                                                                         ###
 ###############################################################################
 ###############################################################################
  Warning: In symmetry  1, orbital p=  39 has diagonal density matrix element D(p,p) close to two. (2 - D(p,p))=  0.272054D-06
       10  24    5    0  -569.49262687   -0.85E-05*  0.12E-02   48  49 1  0.28E-03   0.46   0.00    SX    NO    0:10:35
 ###############################################################################
 ###############################################################################
 ###                                                                         ###
 ###                                                                         ###
 ###    WARNING: Problems in orbital optimization.                           ###
 ###                                                                         ###
 ###                                                                         ###
 ###############################################################################
 ###############################################################################
  Warning: In symmetry  1, orbital p=  39 has diagonal density matrix element D(p,p) close to two. (2 - D(p,p))=  0.272611D-06
       11  24    5    0  -569.49263063   -0.38E-05*  0.64E-03   48  49 1  0.28E-03   0.46   0.00    SX    NO    0:09:56
 ###############################################################################
 ###############################################################################
 ###                                                                         ###
 ###                                                                         ###
 ###    WARNING: Problems in orbital optimization.                           ###
 ###                                                                         ###
 ###                                                                         ###
 ###############################################################################
 ###############################################################################
  Warning: In symmetry  1, orbital p=  39 has diagonal density matrix element D(p,p) close to two. (2 - D(p,p))=  0.273026D-06
       12  23    5    0  -569.49263226   -0.16E-05*  0.36E-03   48  49 1  0.28E-03   0.46   0.00    SX    NO    0:09:48
 ###############################################################################
 ###############################################################################
 ###                                                                         ###
 ###                                                                         ###
 ###    WARNING: Problems in orbital optimization.                           ###
 ###                                                                         ###
 ###                                                                         ###
 ###############################################################################
 ###############################################################################
  Warning: In symmetry  1, orbital p=  39 has diagonal density matrix element D(p,p) close to two. (2 - D(p,p))=  0.273301D-06
       13  23    5    0  -569.49263315   -0.90E-06   0.36E-03   48  49 1  0.28E-03   0.46   0.00    SX    NO    0:10:17
      Convergence after 13 iterations
       14  21    5    0  -569.49263380   -0.64E-06   0.36E-03   48  49 1  0.27E-03   0.46   0.00    SX    NO    0:10:43

      ************************************************************************************************************************
                                                      Wave function printout:
                       occupation of active orbitals, and spin coupling of open shells (u,d: Spin up or down)
      ************************************************************************************************************************

      Note: transformation to natural orbitals
      has been made, which may change the order of the CSFs.

      printout of CI-coefficients larger than  0.05 for root  1
      energy=    -569.694113
      conf/sym  11111111111111111     Coeff  Weight
             1  22222222220000000  -0.85136 0.72481
             3  22222222202000000   0.12248 0.01500
            36  22222222200000002   0.05264 0.00277
            78  22222222udu000d00  -0.05489 0.00301
           318  2222222u2du00000d  -0.07325 0.00537
           321  2222222u2d0u0000d  -0.05368 0.00288
           373  222222u222d000000  -0.05528 0.00306
           486  222222u22du00000d  -0.07450 0.00555
           501  222222u22d000u00d  -0.05485 0.00301
           710  2222u2222d2000000   0.07979 0.00637
           730  2222u2222du00d000  -0.08798 0.00774
          1639  22222222020000200   0.11782 0.01388
          3374  222u2222d20000ud0   0.07161 0.00513
          4576  22222220220200000   0.07480 0.00559
          4912  222222ud220200000  -0.05496 0.00302
          4931  222222ud220u0d000   0.05931 0.00352
          6597  2u22222d220ud0000  -0.05827 0.00340
         11629  22220222222000000   0.06693 0.00448

      printout of CI-coefficients larger than  0.05 for root  2
      energy=    -569.559823
      conf/sym  11111111111111111     Coeff  Weight
           541  22222u2222d000000   0.84238 0.70960
           543  22222u22220d00000  -0.06636 0.00440
           561  22222u2222000d000  -0.15625 0.02441
           581  22222u22220000d00   0.05335 0.00285
           654  22222u222du00000d   0.10817 0.01170
           703  22222u2220d000002   0.05126 0.00263
          1046  22u222222d2000000  -0.12870 0.01656
          1066  22u222222du00d000   0.06869 0.00472
          5246  22222u2d22ud00000  -0.05169 0.00267
          7617  22222ud222u00d000  -0.05997 0.00360
         12301  22u2d222222000000  -0.11332 0.01284
         12321  22u2d22222u00d000   0.06950 0.00483
         13645  22ud2222222000000   0.05739 0.00329
         22018  22222uu222d00d000  -0.05850 0.00342
         22237  22222uu22dd00u00d  -0.05219 0.00272
         31092  22222u2202d000200   0.09986 0.00997
         59662  222u2u22d2d000ud0  -0.05486 0.00301
         67238  22222u2022d200000   0.06554 0.00430

      printout of CI-coefficients larger than  0.05 for root  3
      energy=    -569.518855
      conf/sym  11111111111111111     Coeff  Weight
             2  222222222ud000000  -0.09027 0.00815
             4  222222222u0d00000   0.36706 0.13473
             5  2222222220ud00000  -0.09897 0.00980
            11  222222222u000d000  -0.12430 0.01545
            12  2222222220u00d000   0.05652 0.00319
            16  222222222u0000d00   0.11068 0.01225
            29  222222222u000000d  -0.08452 0.00714
            37  22222222u2d000000   0.12269 0.01505
            39  22222222u20d00000   0.05950 0.00354
           149  22222222u2000000d   0.06776 0.00459
           205  2222222u22d000000  -0.43295 0.18744
           206  2222222u2d2000000  -0.12361 0.01528
           207  2222222u220d00000   0.11607 0.01347
           214  2222222u2du0d0000  -0.06860 0.00471
           225  2222222u22000d000  -0.19910 0.03964
           317  2222222u22000000d   0.18230 0.03323
           326  2222222u2d00u000d   0.05237 0.00274
           373  222222u222d000000   0.30043 0.09026
           374  222222u22d2000000   0.07841 0.00615
           375  222222u2220d00000   0.19530 0.03814
           382  222222u22du0d0000   0.06515 0.00424
           413  222222u2220000d00  -0.06385 0.00408
           485  222222u222000000d  -0.20873 0.04357
           711  2222u222220d00000  -0.06586 0.00434
           712  2222u2222dud00000  -0.05340 0.00285
          1216  2u2222222dud00000   0.07363 0.00542
          1329  2u2222222d0u0000d  -0.06455 0.00417
          4574  2222222022ud00000   0.05456 0.00298
          4579  2222222022u0d0000  -0.05232 0.00274
          4917  222222ud220ud0000  -0.08463 0.00716
          5581  2222u22d222000000  -0.05390 0.00291
          5777  2222u22d22u00000d   0.05802 0.00337
          6592  2u22222d220200000  -0.05150 0.00265
          6611  2u22222d220u0d000   0.06274 0.00394
          6785  2u22222d22u00000d  -0.05222 0.00273
          8944  2u2222d2220200000   0.05543 0.00307
         30056  2222222u02d000200  -0.05079 0.00258

      printout of CI-coefficients larger than  0.05 for root  4
      energy=    -569.517366
      conf/sym  11111111111111111     Coeff  Weight
             2  222222222ud000000   0.05221 0.00273
             4  222222222u0d00000   0.05900 0.00348
            11  222222222u000d000  -0.15681 0.02459
            16  222222222u0000d00  -0.34350 0.11800
            17  2222222220u000d00  -0.10650 0.01134
            37  22222222u2d000000  -0.51721 0.26751
            38  22222222ud2000000   0.13626 0.01857
            39  22222222u20d00000  -0.13780 0.01899
            57  22222222u2000d000  -0.14040 0.01971
            77  22222222u20000d00   0.06651 0.00442
           108  22222222udu0000d0  -0.08741 0.00764
           149  22222222u2000000d  -0.27061 0.07323
           185  22222222ud00000ud  -0.05243 0.00275
           205  2222222u22d000000  -0.09677 0.00936
           207  2222222u220d00000   0.05587 0.00312
           245  2222222u220000d00   0.17193 0.02956
           317  2222222u22000000d   0.06658 0.00443
           373  222222u222d000000   0.09239 0.00854
           375  222222u2220d00000   0.08239 0.00679
           393  222222u222000d000   0.08003 0.00640
           413  222222u2220000d00   0.21144 0.04471
           749  2222u222220000d00   0.08250 0.00681
           918  222u22222du000d00  -0.07206 0.00519
          1014  222u22222d0000u0d  -0.05289 0.00280
          1599  2222222202u000d00   0.05317 0.00283
          1694  22222222020000ud0  -0.09297 0.00864
          2326  222222u2d2u0000d0   0.05282 0.00279
          2893  2222u222d22000000   0.06304 0.00397
          3089  2222u222d2u00000d   0.06279 0.00394
          3319  222u2222d20000200  -0.08382 0.00703

      printout of CI-coefficients larger than  0.05 for root  5
      energy=    -569.493300
      conf/sym  11111111111111111     Coeff  Weight
             3  22222222202000000  -0.45060 0.20304
             4  222222222u0d00000  -0.05578 0.00311
             5  2222222220ud00000  -0.10529 0.01109
            12  2222222220u00d000  -0.18970 0.03598
            17  2222222220u000d00   0.05390 0.00290
            29  222222222u000000d  -0.26441 0.06991
            36  22222222200000002   0.08633 0.00745
            78  22222222udu000d00   0.10226 0.01046
            79  22222222uud000d00  -0.06530 0.00426
           205  2222222u22d000000  -0.28656 0.08212
           318  2222222u2du00000d   0.10662 0.01137
           319  2222222u2ud00000d  -0.12949 0.01677
           321  2222222u2d0u0000d  -0.05389 0.00290
           373  222222u222d000000  -0.39672 0.15739
           376  222222u22dud00000   0.08539 0.00729
           377  222222u22udd00000  -0.06927 0.00480
           486  222222u22du00000d   0.10270 0.01055
           487  222222u22ud00000d  -0.15565 0.02423
           731  2222u2222ud00d000  -0.09077 0.00824
           821  2222u22222000000d  -0.10392 0.01080
          1222  2u2222222du0d0000   0.05230 0.00274
          1641  22222222002000200   0.05125 0.00263
          4574  2222222022ud00000   0.06047 0.00366
          5777  2222u22d22u00000d   0.06298 0.00397
          7281  2222220222u00d000   0.08632 0.00745
          8129  2222u2d222u00000d   0.07494 0.00562
         11629  22220222222000000   0.09316 0.00868
         11965  222ud222222000000  -0.05743 0.00330

      printout of CI-coefficients larger than  0.05 for root  6
      energy=    -569.479866
      conf/sym  11111111111111111     Coeff  Weight
             2  222222222ud000000   0.72413 0.52436
            11  222222222u000d000  -0.11130 0.01239
            30  2222222220u00000d  -0.17539 0.03076
            33  2222222220000u00d   0.08351 0.00697
            37  22222222u2d000000   0.08147 0.00664
           205  2222222u22d000000  -0.07727 0.00597
           206  2222222u2d2000000   0.16277 0.02650
           374  222222u22d2000000   0.24284 0.05897
           485  222222u222000000d  -0.07448 0.00555
           709  2222u22222d000000  -0.24669 0.06086
           823  2222u2222ud00000d  -0.09839 0.00968
           877  222u222222d000000   0.07031 0.00494
           990  222u22222du00000d   0.06369 0.00406
          1640  222222220ud000200  -0.08312 0.00691
          2943  2222u222d2u000d00   0.05841 0.00341
          4577  222222202ud200000  -0.05588 0.00312
          7933  2222u2d2222000000   0.05901 0.00348
         11825  2222022222u00000d   0.05255 0.00276

      printout of CI-coefficients larger than  0.05 for root  7
      energy=    -569.473635
      conf/sym  11111111111111111     Coeff  Weight
           542  22222u222d2000000  -0.65647 0.43095
           543  22222u22220d00000  -0.05103 0.00260
           545  22222u222udd00000  -0.07163 0.00513
           563  22222u222ud00d000  -0.14149 0.02002
           577  22222u222d0002000   0.08204 0.00673
           653  22222u2222000000d  -0.26913 0.07243
          1045  22u2222222d000000   0.26342 0.06939
          1158  22u222222du00000d   0.06115 0.00374
          2607  22222u22d2u000d00   0.13759 0.01893
          5246  22222u2d22ud00000  -0.07289 0.00531
          5441  22222u2d22u00000d   0.17809 0.03172
          7598  22222ud222ud00000   0.12972 0.01683
          7793  22222ud222u00000d   0.17773 0.03159
          7813  22222ud222000u00d  -0.06064 0.00368
          9950  2222ud2222ud00000   0.05540 0.00307
          9969  2222ud2222u00d000   0.11053 0.01222
         10390  222u2d2222u0000d0   0.06484 0.00420
         10963  2u222d2222u0d0000   0.06915 0.00478
         17134  22222u22u2d000d00   0.07929 0.00629
         19945  22222u2u22d00000d   0.09295 0.00864
         22003  22222uu222dd00000   0.07208 0.00520
         22213  22222uu222d00000d   0.09437 0.00890
         24286  2222uu2222d00d000  -0.05166 0.00267
         31093  22222u220d2000200  -0.07627 0.00582

      printout of CI-coefficients larger than  0.05 for root  8
      energy=    -569.447171
      conf/sym  11111111111111111     Coeff  Weight
           543  22222u22220d00000   0.23176 0.05371
           544  22222u222dud00000   0.05502 0.00303
           561  22222u2222000d000   0.32821 0.10772
           653  22222u2222000000d  -0.05077 0.00258
           654  22222u222du00000d   0.31804 0.10115
           655  22222u222ud00000d   0.19924 0.03970
           669  22222u222d000u00d  -0.09131 0.00834
           673  22222u222u000d00d  -0.07210 0.00520
          2577  22222u22d2u00d000  -0.06563 0.00431
          2607  22222u22d2u000d00  -0.17789 0.03164
          2627  22222u22d2000ud00   0.05854 0.00343
          5245  22222u2d222000000  -0.30493 0.09298
          5246  22222u2d22ud00000  -0.17402 0.03028
          5248  22222u2d220200000   0.05673 0.00322
          5267  22222u2d220u0d000   0.07376 0.00544
          7597  22222ud2222000000  -0.39805 0.15844
          7598  22222ud222ud00000   0.06012 0.00361
          7617  22222ud222u00d000  -0.09301 0.00865
          7637  22222ud2220002000   0.09478 0.00898
         10145  2222ud2222u00000d  -0.13062 0.01706
         10390  222u2d2222u0000d0  -0.05802 0.00337
         10963  2u222d2222u0d0000   0.05729 0.00328
         10977  2u222d2222u00d000  -0.05290 0.00280
         12301  22u2d222222000000   0.06663 0.00444
         17134  22222u22u2d000d00  -0.09965 0.00993
         19735  22222u2u22dd00000  -0.13089 0.01713
         22018  22222uu222d00d000  -0.13663 0.01867
         24481  2222uu2222d00000d   0.05921 0.00351

      printout of CI-coefficients larger than  0.05 for root  9
      energy=    -569.439638
      conf/sym  11111111111111111     Coeff  Weight
             2  222222222ud000000   0.44825 0.20093
             4  222222222u0d00000   0.13342 0.01780
             5  2222222220ud00000   0.05162 0.00267
            11  222222222u000d000   0.31666 0.10027
            16  222222222u0000d00  -0.11741 0.01379
            30  2222222220u00000d   0.33536 0.11246
            37  22222222u2d000000   0.05789 0.00335
            38  22222222ud2000000  -0.05862 0.00344
           205  2222222u22d000000  -0.06770 0.00458
           206  2222222u2d2000000  -0.16988 0.02886
           226  2222222u2du00d000  -0.08757 0.00767
           227  2222222u2ud00d000   0.05772 0.00333
           317  2222222u22000000d  -0.07813 0.00610
           374  222222u22d2000000  -0.14686 0.02157
           375  222222u2220d00000  -0.06239 0.00389
           376  222222u22dud00000  -0.06382 0.00407
           394  222222u22du00d000  -0.07336 0.00538
           395  222222u22ud00d000   0.06807 0.00463
           534  222222u22d0000002  -0.06002 0.00360
           709  2222u22222d000000   0.29639 0.08784
           823  2222u2222ud00000d   0.10104 0.01021
           877  222u222222d000000   0.11021 0.01215
           990  222u22222du00000d  -0.05819 0.00339
          1214  2u2222222d2000000  -0.05068 0.00257
          1325  2u22222222000000d   0.09530 0.00908
          4574  2222222022ud00000   0.05012 0.00251
          5105  222222ud22u00000d   0.06050 0.00366
          5581  2222u22d222000000  -0.09601 0.00922
          7933  2222u2d2222000000  -0.10701 0.01145
          8269  222u22d2222000000   0.05213 0.00272
         11825  2222022222u00000d  -0.07473 0.00558
         22396  2222u2u222d00d000  -0.05980 0.00358

      printout of CI-coefficients larger than  0.05 for root 10
      energy=    -569.430151
      conf/sym  11111111111111111     Coeff  Weight
             4  222222222u0d00000   0.14046 0.01973
             5  2222222220ud00000   0.15633 0.02444
            11  222222222u000d000  -0.05978 0.00357
            16  222222222u0000d00  -0.06384 0.00408
            17  2222222220u000d00   0.07112 0.00506
            29  222222222u000000d   0.06336 0.00401
            31  22222222200u0000d   0.05894 0.00347
            37  22222222u2d000000   0.19234 0.03699
            38  22222222ud2000000  -0.12658 0.01602
            39  22222222u20d00000  -0.05693 0.00324
            57  22222222u2000d000  -0.09392 0.00882
            58  22222222udu00d000  -0.05446 0.00297
           149  22222222u2000000d  -0.12665 0.01604
           151  22222222uud00000d   0.08693 0.00756
           205  2222222u22d000000   0.19472 0.03791
           206  2222222u2d2000000   0.19208 0.03689
           207  2222222u220d00000   0.10647 0.01134
           208  2222222u2dud00000   0.07115 0.00506
           225  2222222u22000d000  -0.14631 0.02141
           245  2222222u220000d00   0.11311 0.01279
           317  2222222u22000000d   0.20801 0.04327
           319  2222222u2ud00000d   0.14295 0.02043
           326  2222222u2d00u000d   0.05464 0.00299
           373  222222u222d000000  -0.29836 0.08902
           374  222222u22d2000000  -0.15436 0.02383
           375  222222u2220d00000   0.23221 0.05392
           377  222222u22udd00000  -0.05184 0.00269
           394  222222u22du00d000  -0.05573 0.00311
           395  222222u22ud00d000   0.05558 0.00309
           413  222222u2220000d00   0.10409 0.01084
           485  222222u222000000d  -0.22689 0.05148
           487  222222u22ud00000d  -0.08326 0.00693
           711  2222u222220d00000  -0.12037 0.01449
           729  2222u22222000d000   0.08172 0.00668
           749  2222u222220000d00   0.06486 0.00421
          1215  2u222222220d00000   0.05762 0.00332
          1217  2u2222222udd00000   0.05472 0.00299
          2271  222222u2d2u000d00   0.05584 0.00312
          3089  2222u222d2u00000d  -0.05212 0.00272
          4574  2222222022ud00000  -0.08004 0.00641
          4917  222222ud220ud0000  -0.05214 0.00272
          5107  222222ud220u0000d  -0.05413 0.00293
          5581  2222u22d222000000   0.05638 0.00318
          5777  2222u22d22u00000d  -0.07275 0.00529
          7281  2222220222u00d000   0.08616 0.00742
          7933  2222u2d2222000000  -0.05028 0.00253

      printout of CI-coefficients larger than  0.05 for root 11
      energy=    -569.429408
      conf/sym  11111111111111111     Coeff  Weight
           543  22222u22220d00000   0.36782 0.13529
           544  22222u222dud00000  -0.20324 0.04131
           545  22222u222udd00000  -0.23381 0.05467
           561  22222u2222000d000  -0.19372 0.03753
           563  22222u222ud00d000   0.08825 0.00779
           565  22222u222d0u0d000   0.05683 0.00323
           567  22222u222u0d0d000  -0.06477 0.00419
           653  22222u2222000000d  -0.15007 0.02252
          1045  22u2222222d000000  -0.06929 0.00480
          5245  22222u2d222000000  -0.38008 0.14446
          5246  22222u2d22ud00000  -0.08040 0.00646
          5248  22222u2d220200000   0.05957 0.00355
          5251  22222u2d22u0d0000  -0.05965 0.00356
          5441  22222u2d22u00000d   0.22292 0.04969
          5443  22222u2d220u0000d  -0.05353 0.00287
          5461  22222u2d22000u00d  -0.06377 0.00407
          7597  22222ud2222000000   0.36605 0.13400
          7598  22222ud222ud00000  -0.09295 0.00864
          7603  22222ud222u0d0000   0.05362 0.00288
          7617  22222ud222u00d000   0.07843 0.00615
          7637  22222ud2220002000  -0.08529 0.00727
          7793  22222ud222u00000d  -0.10589 0.01121
         10958  2u222d2222ud00000   0.08116 0.00659
         10959  2u222d222u2d00000  -0.05219 0.00272
         19735  22222u2u22dd00000  -0.12544 0.01574
         19945  22222u2u22d00000d   0.05917 0.00350
         22003  22222uu222dd00000  -0.11350 0.01288
         22018  22222uu222d00d000   0.08986 0.00807
         24271  2222uu2222dd00000  -0.05122 0.00262

      printout of CI-coefficients larger than  0.05 for root 12
      energy=    -569.428280
      conf/sym  11111111111111111     Coeff  Weight
             2  222222222ud000000   0.10936 0.01196
             4  222222222u0d00000   0.07515 0.00565
             5  2222222220ud00000   0.06546 0.00429
            12  2222222220u00d000  -0.08777 0.00770
            16  222222222u0000d00   0.09890 0.00978
            17  2222222220u000d00  -0.13237 0.01752
            34  22222222200000u0d   0.06596 0.00435
            37  22222222u2d000000  -0.33959 0.11532
            38  22222222ud2000000   0.24459 0.05982
            39  22222222u20d00000   0.15741 0.02478
            40  22222222udud00000   0.05950 0.00354
            41  22222222uudd00000  -0.05405 0.00292
            57  22222222u2000d000   0.14322 0.02051
            58  22222222udu00d000   0.09233 0.00853
           102  22222222ud0000200  -0.06365 0.00405
           107  22222222u200000d0   0.05684 0.00323
           108  22222222udu0000d0  -0.06415 0.00411
           149  22222222u2000000d   0.24914 0.06207
           150  22222222udu00000d   0.05575 0.00311
           151  22222222uud00000d  -0.15502 0.02403
           205  2222222u22d000000   0.16882 0.02850
           206  2222222u2d2000000   0.06909 0.00477
           225  2222222u22000d000  -0.15642 0.02447
           245  2222222u220000d00  -0.13232 0.01751
           317  2222222u22000000d   0.08533 0.00728
           319  2222222u2ud00000d   0.07947 0.00632
           373  222222u222d000000  -0.05695 0.00324
           374  222222u22d2000000  -0.11930 0.01423
           375  222222u2220d00000   0.07700 0.00593
           393  222222u222000d000  -0.06692 0.00448
           413  222222u2220000d00  -0.20325 0.04131
           414  222222u22du000d00   0.05492 0.00302
           415  222222u22ud000d00  -0.07028 0.00494
           485  222222u222000000d  -0.15111 0.02283
           711  2222u222220d00000  -0.07441 0.00554
           749  2222u222220000d00  -0.14819 0.02196
           877  222u222222d000000   0.05006 0.00251
           917  222u2222220000d00  -0.05157 0.00266
           918  222u22222du000d00  -0.05442 0.00296
           919  222u22222ud000d00   0.05474 0.00300
          1599  2222222202u000d00   0.07296 0.00532
          1886  2222222ud2ud00000   0.07536 0.00568
          1935  2222222ud2u000d00  -0.05896 0.00348
          2221  222222u2d22000000   0.05006 0.00251
          2241  222222u2d2u00d000   0.09666 0.00934
          2893  2222u222d22000000   0.06445 0.00415
          3089  2222u222d2u00000d   0.09046 0.00818
          7281  2222220222u00d000   0.05122 0.00262

      Natural orbitals and occupation numbers for root  1
      sym 1:   2.000000   1.962918   1.998310   1.963400   1.924855   1.996746   1.908339   1.905380   1.905856   1.845973
               0.160678   0.095076   0.034471   0.076726   0.094726   0.033908   0.092637

      Natural orbitals and occupation numbers for root  2
      sym 1:   2.000000   1.972043   1.934048   1.972629   1.948273   1.065279   1.929865   1.932043   1.930200   1.898843
               1.055803   0.072313   0.027602   0.080182   0.071979   0.027876   0.081024

      Natural orbitals and occupation numbers for root  3
      sym 1:   2.000000   1.937876   1.998607   1.966712   1.909003   1.998042   1.867419   1.373640   1.900573   1.542952
               0.688724   0.424767   0.057798   0.084822   0.092546   0.029810   0.126709

      Natural orbitals and occupation numbers for root  4
      sym 1:   2.000000   1.966646   1.998626   1.937746   1.907465   1.998031   1.867201   1.899589   1.370176   1.547862
               0.697645   0.093693   0.029936   0.085536   0.414749   0.057556   0.127543

      Natural orbitals and occupation numbers for root  5
      sym 1:   2.000000   1.944161   1.998915   1.947200   1.870092   1.996320   1.563363   1.892751   1.893775   1.145179
               1.067054   0.105940   0.046086   0.155601   0.104882   0.044582   0.224100

      Natural orbitals and occupation numbers for root  6
      sym 1:   2.000000   1.956287   1.998665   1.955107   1.861314   1.998434   1.890292   1.920524   1.924436   1.080893
               1.005962   0.079612   0.033834   0.094645   0.078564   0.033068   0.088364

      Natural orbitals and occupation numbers for root  7
      sym 1:   2.000000   1.960785   1.887268   1.968691   1.942751   1.111837   1.868050   1.897083   1.900455   1.393224
               1.356884   0.105373   0.039087   0.163896   0.101978   0.038429   0.264209

      Natural orbitals and occupation numbers for root  8
      sym 1:   2.000000   1.954832   1.961257   1.966736   1.951928   1.038220   1.603121   1.869918   1.873573   1.711703
               1.065743   0.131400   0.042954   0.371698   0.128170   0.042465   0.286283

      Natural orbitals and occupation numbers for root  9
      sym 1:   2.000000   1.939303   1.997734   1.930069   1.825616   1.997321   1.902170   1.821151   1.906721   1.063335
               0.902539   0.091844   0.040575   0.191056   0.088927   0.038507   0.263133

      Natural orbitals and occupation numbers for root 10
      sym 1:   2.000000   1.929420   1.998936   1.953618   1.884955   1.998104   1.400874   1.733359   1.789219   1.612512
               0.697530   0.332822   0.059389   0.150733   0.136516   0.040112   0.281901

      Natural orbitals and occupation numbers for root 11
      sym 1:   2.000000   1.944642   1.962611   1.977240   1.965168   1.036448   1.928963   1.505952   1.940386   1.844807
               0.974790   0.551684   0.051807   0.159677   0.060994   0.023973   0.070858

      Natural orbitals and occupation numbers for root 12
      sym 1:   2.000000   1.949977   1.998910   1.926935   1.885725   1.998153   1.736743   1.782056   1.404231   1.607925
               0.687244   0.146463   0.041220   0.151557   0.325586   0.060232   0.297045

      ************************************************************************************************************************
      *                                                                                                                      *
      *                                                    Final results                                                     *
      *                                                                                                                      *
      ************************************************************************************************************************


++    Wave function specifications:
      -----------------------------

      Number of closed shell electrons          76
      Number of electrons in active shells      20
      Max number of holes in RAS1 space          1
      Max nr of electrons in RAS3 space          4
      Number of inactive orbitals               38
      Number of active orbitals                 17
      Number of secondary orbitals             331
      Spin quantum number                      0.0
      State symmetry                             1
--

++    Orbital specifications:
      -----------------------

      Symmetry species                           1
                                                 a
      Frozen orbitals                            0
      Inactive orbitals                         38
      Active orbitals                           17
      RAS1 orbitals                              1
      RAS2 orbitals                              9
      RAS3 orbitals                              7
      Secondary orbitals                       331
      Deleted orbitals                           0
      Number of basis functions                386
--

++    CI expansion specifications:
      ----------------------------

      Number of CSFs                        403250
      Number of determinants                794060
      Number of root(s) required                12
      CI roots used                              1     2     3     4     5     6     7     8     9    10
                                                11    12
      weights                                0.083 0.083 0.083 0.083 0.083 0.083 0.083 0.083 0.083 0.083
                                             0.083 0.083
      highest root included in the CI           12
      Root passed to geometry opt.              12
--

++    Final optimization conditions:
      ------------------------------

      Average CI energy                            -569.49263380
      RASSCF energy for state 12                   -569.42827970
      Super-CI energy                                -0.00000034
      RASSCF energy change                            0.00000000
      Max change in MO coefficients               0.287E-03
      Max non-diagonal density matrix element     0.358E-03
      Maximum BLB matrix element                  0.273E-03
      (orbital pair  48,  49 in symmetry   1)
      Norm of electronic gradient            0.102E+00
      Supersymmetry has been used to disable selected orbital rotations
      Supersymmetry vector for symmetry species  1
        0  0  0  0  0  0  0  0  0  0  0  0  0  0  0  0  0  0  0  0  0  0  0  0  0  0  0  0  0  0
        0  0  0  0  0  0  0  0  1  0  0  0  0  0  0  0  0  0  0  0  0  0  0  0  0  0  0  0  0  0
        0  0  0  0  0  0  0  0  0  0  0  0  0  0  0  0  0  0  0  0  0  0  0  0  0  0  0  0  0  0
        0  0  0  0  0  0  0  0  0  0  0  0  0  0  0  0  0  0  0  0  0  0  0  0  0  0  0  0  0  0
        0  0  0  0  0  0  0  0  0  0  0  0  0  0  0  0  0  0  0  0  0  0  0  0  0  0  0  0  0  0
        0  0  0  0  0  0  0  0  0  0  0  0  0  0  0  0  0  0  0  0  0  0  0  0  0  0  0  0  0  0
        0  0  0  0  0  0  0  0  0  0  0  0  0  0  0  0  0  0  0  0  0  0  0  0  0  0  0  0  0  0
        0  0  0  0  0  0  0  0  0  0  0  0  0  0  0  0  0  0  0  0  0  0  0  0  0  0  0  0  0  0
        0  0  0  0  0  0  0  0  0  0  0  0  0  0  0  0  0  0  0  0  0  0  0  0  0  0  0  0  0  0
        0  0  0  0  0  0  0  0  0  0  0  0  0  0  0  0  0  0  0  0  0  0  0  0  0  0  0  0  0  0
        0  0  0  0  0  0  0  0  0  0  0  0  0  0  0  0  0  0  0  0  0  0  0  0  0  0  0  0  0  0
        0  0  0  0  0  0  0  0  0  0  0  0  0  0  0  0  0  0  0  0  0  0  0  0  0  0  0  0  0  0
        0  0  0  0  0  0  0  0  0  0  0  0  0  0  0  0  0  0  0  0  0  0  0  0  0  0
--


      Final state energy(ies):
      ------------------------

::    RASSCF root number  1 Total energy:   -569.69411261
::    RASSCF root number  2 Total energy:   -569.55982350
::    RASSCF root number  3 Total energy:   -569.51885542
::    RASSCF root number  4 Total energy:   -569.51736572
::    RASSCF root number  5 Total energy:   -569.49329989
::    RASSCF root number  6 Total energy:   -569.47986623
::    RASSCF root number  7 Total energy:   -569.47363474
::    RASSCF root number  8 Total energy:   -569.44717062
::    RASSCF root number  9 Total energy:   -569.43963793
::    RASSCF root number 10 Total energy:   -569.43015074
::    RASSCF root number 11 Total energy:   -569.42940845
::    RASSCF root number 12 Total energy:   -569.42827970

++    Molecular orbitals:
      -------------------

      Pseudonatural active orbitals and approximate occupation numbers


      MOLECULAR ORBITALS FOR SYMMETRY SPECIES 1: a  

      INDEX  ENERGY  OCCUPATION COEFFICIENTS ...
          1   -0.4921    2.0000                                                                                                           
                11 N1     2pz    ( 0.1132)  41 C2     2pz    (-0.2458)  64 C3     2pz    ( 0.2331)  87 C4     2pz    (-0.2076)
               110 C5     2pz    ( 0.2148) 133 C6     2pz    (-0.2112) 156 C7     2pz    ( 0.1906) 169 H8     1s     ( 0.1315)
               174 H9     1s     (-0.2279) 184 H11    1s     ( 0.1297) 189 H12    1s     (-0.2072) 204 N13    2pz    (-0.1137)
               234 C14    2pz    ( 0.2375) 257 C15    2pz    (-0.2255) 280 C16    2pz    ( 0.2003) 303 C17    2pz    (-0.2060)
               326 C18    2pz    ( 0.2026) 349 C19    2pz    (-0.1829) 362 H20    1s     ( 0.1244) 367 H21    1s     (-0.2196)
               377 H23    1s     ( 0.1224) 382 H24    1s     (-0.1987)
          2  -15.6083    2.0000                                                                                                           
               194 N13    1s     (-1.0004)
          3  -11.2725    2.0000                                                                                                           
               224 C14    1s     ( 0.9986)
          4  -11.2728    2.0000                                                                                                           
                31 C2     1s     ( 0.9986)
          5  -11.2424    2.0000                                                                                                           
               270 C16    1s     (-0.1878) 293 C17    1s     (-0.2004) 316 C18    1s     (-0.9440) 339 C19    1s     (-0.1789)
      
          6  -11.2427    2.0000                                                                                                           
               100 C5     1s     (-0.1468) 123 C6     1s     (-0.9724) 146 C7     1s     (-0.1518)
          7  -11.2420    2.0000                                                                                                           
                54 C3     1s     (-0.1587)  77 C4     1s     (-0.9691) 100 C5     1s     (-0.1462) 123 C6     1s     ( 0.1128)
      
          8  -11.2419    2.0000                                                                                                           
               247 C15    1s     (-0.1485) 270 C16    1s     (-0.9504) 293 C17    1s     (-0.1562) 316 C18    1s     ( 0.2160)
      
          9  -11.2386    2.0000                                                                                                           
                54 C3     1s     (-0.4074) 100 C5     1s     ( 0.8524) 123 C6     1s     (-0.1599) 146 C7     1s     ( 0.2747)
      
         10  -11.2391    2.0000                                                                                                           
               247 C15    1s     ( 0.1115) 270 C16    1s     ( 0.1360) 293 C17    1s     (-0.7827) 316 C18    1s     ( 0.2395)
               339 C19    1s     (-0.5460)
         11  -11.2393    2.0000                                                                                                           
               270 C16    1s     (-0.1137) 293 C17    1s     ( 0.5597) 339 C19    1s     (-0.8160)
         12  -11.2389    2.0000                                                                                                           
               100 C5     1s     (-0.2993) 123 C6     1s     (-0.1076) 146 C7     1s     ( 0.9451)
         13  -11.2382    2.0000                                                                                                           
               247 C15    1s     ( 0.9802) 270 C16    1s     (-0.1704)
         14  -11.2383    2.0000                                                                                                           
                54 C3     1s     ( 0.8976)  77 C4     1s     (-0.2080) 100 C5     1s     ( 0.3742)
         15   -1.3368    2.0000                                                                                                           
                 2 N1     2s     ( 0.4565)  11 N1     2pz    (-0.1396)  32 C2     2s     ( 0.1765) 195 N13    2s     ( 0.4570)
               204 N13    2pz    ( 0.1393) 225 C14    2s     ( 0.1771)
         16   -1.1600    2.0000                                                                                                           
                32 C2     2s     ( 0.2423)  55 C3     2s     ( 0.1735)  78 C4     2s     ( 0.1525) 101 C5     2s     ( 0.1201)
               124 C6     2s     ( 0.1533) 147 C7     2s     ( 0.1638) 225 C14    2s     (-0.2446) 248 C15    2s     (-0.1759)
               271 C16    2s     (-0.1550) 294 C17    2s     (-0.1228) 317 C18    2s     (-0.1559) 340 C19    2s     (-0.1665)
      
         17   -1.1375    2.0000                                                                                                           
                 2 N1     2s     ( 0.1120)  32 C2     2s     (-0.1691)  55 C3     2s     (-0.1729)  78 C4     2s     (-0.1852)
               101 C5     2s     (-0.1871) 124 C6     2s     (-0.1853) 147 C7     2s     (-0.1592) 195 N13    2s     ( 0.1150)
               225 C14    2s     (-0.1652) 248 C15    2s     (-0.1702) 271 C16    2s     (-0.1833) 294 C17    2s     (-0.1858)
               317 C18    2s     (-0.1836) 340 C19    2s     (-0.1572)
         18   -1.0615    2.0000                                                                                                           
                 2 N1     2s     (-0.2494)   5 N1     2px    (-0.1386)  11 N1     2pz    (-0.1012)  32 C2     2s     (-0.1760)
                78 C4     2s     ( 0.1499) 101 C5     2s     ( 0.2324) 124 C6     2s     ( 0.1699) 195 N13    2s     ( 0.2481)
               198 N13    2px    (-0.1390) 204 N13    2pz    (-0.1016) 225 C14    2s     ( 0.1772) 271 C16    2s     (-0.1497)
               294 C17    2s     (-0.2323) 317 C18    2s     (-0.1698)
         19   -1.0141    2.0000                                                                                                           
                55 C3     2s     ( 0.1815)  78 C4     2s     ( 0.1312) 124 C6     2s     (-0.1786) 147 C7     2s     (-0.1399)
               248 C15    2s     ( 0.2840) 271 C16    2s     ( 0.2388) 317 C18    2s     (-0.2760) 340 C19    2s     (-0.2537)
               362 H20    1s     ( 0.1189) 377 H23    1s     (-0.1154) 382 H24    1s     (-0.1043)
         20   -1.0136    2.0000                                                                                                           
                55 C3     2s     ( 0.2650)  78 C4     2s     ( 0.2624) 124 C6     2s     (-0.2540) 147 C7     2s     (-0.2776)
               169 H8     1s     ( 0.1076) 174 H9     1s     ( 0.1102) 184 H11    1s     (-0.1067) 189 H12    1s     (-0.1139)
               248 C15    2s     (-0.1493) 271 C16    2s     (-0.1725) 317 C18    2s     ( 0.1409) 340 C19    2s     ( 0.1821)
      
         21   -0.9963    2.0000                                                                                                           
                11 N1     2pz    ( 0.1084)  32 C2     2s     ( 0.2537)  55 C3     2s     ( 0.1037)  78 C4     2s     (-0.1568)
               101 C5     2s     (-0.2477) 147 C7     2s     ( 0.1696) 179 H10    1s     (-0.1079) 195 N13    2s     (-0.1025)
               204 N13    2pz    (-0.1076) 225 C14    2s     ( 0.2534) 248 C15    2s     ( 0.1059) 271 C16    2s     (-0.1545)
               294 C17    2s     (-0.2476) 340 C19    2s     ( 0.1681) 372 H22    1s     (-0.1079)
         22   -0.9110    2.0000                                                                                                           
                 2 N1     2s     (-0.3333)   5 N1     2px    (-0.1562)  11 N1     2pz    (-0.1010)  35 C2     2px    ( 0.1413)
                55 C3     2s     ( 0.1536)  81 C4     2px    (-0.1210) 101 C5     2s     (-0.2056) 133 C6     2pz    (-0.1007)
               147 C7     2s     ( 0.1592) 179 H10    1s     (-0.1277) 195 N13    2s     ( 0.3324) 198 N13    2px    (-0.1574)
               204 N13    2pz    (-0.1016) 228 C14    2px    ( 0.1417) 248 C15    2s     (-0.1534) 274 C16    2px    (-0.1210)
               294 C17    2s     ( 0.2055) 326 C18    2pz    (-0.1007) 340 C19    2s     (-0.1593) 372 H22    1s     ( 0.1278)
      
         23   -0.8347    2.0000                                                                                                           
                11 N1     2pz    ( 0.1356)  35 C2     2px    (-0.1055)  41 C2     2pz    ( 0.1154)  64 C3     2pz    (-0.1145)
                78 C4     2s     (-0.1806) 110 C5     2pz    (-0.1008) 124 C6     2s     ( 0.1079) 133 C6     2pz    ( 0.1000)
               147 C7     2s     (-0.1815) 174 H9     1s     (-0.1366) 189 H12    1s     (-0.1325) 204 N13    2pz    (-0.1354)
               228 C14    2px    ( 0.1073) 234 C14    2pz    (-0.1200) 257 C15    2pz    ( 0.1159) 271 C16    2s     (-0.1854)
               303 C17    2pz    ( 0.1049) 317 C18    2s     ( 0.1132) 326 C18    2pz    (-0.1006) 340 C19    2s     (-0.1855)
               367 H21    1s     (-0.1401) 382 H24    1s     (-0.1357)
         24   -0.8278    2.0000                                                                                                           
                41 C2     2pz    (-0.1558)  55 C3     2s     (-0.1706)  78 C4     2s     ( 0.1557) 110 C5     2pz    ( 0.1396)
               124 C6     2s     (-0.1816) 147 C7     2s     ( 0.1459) 150 C7     2px    (-0.1110) 169 H8     1s     (-0.1345)
               174 H9     1s     ( 0.1199) 184 H11    1s     (-0.1375) 189 H12    1s     ( 0.1159) 234 C14    2pz    (-0.1535)
               248 C15    2s     ( 0.1712) 271 C16    2s     (-0.1507) 303 C17    2pz    ( 0.1380) 317 C18    2s     ( 0.1811)
               340 C19    2s     (-0.1412) 343 C19    2px    (-0.1131) 362 H20    1s     ( 0.1342) 367 H21    1s     (-0.1158)
               377 H23    1s     ( 0.1369) 382 H24    1s     (-0.1120)
         25   -0.8099    2.0000                                                                                                           
                11 N1     2pz    (-0.1183)  32 C2     2s     (-0.1689)  55 C3     2s     ( 0.1534)  64 C3     2pz    ( 0.1130)
                81 C4     2px    (-0.1632) 101 C5     2s     (-0.1522) 124 C6     2s     ( 0.1642) 150 C7     2px    ( 0.1693)
               169 H8     1s     ( 0.1337) 179 H10    1s     (-0.1230) 184 H11    1s     ( 0.1481) 204 N13    2pz    ( 0.1175)
               225 C14    2s     (-0.1700) 248 C15    2s     ( 0.1512) 257 C15    2pz    (-0.1145) 274 C16    2px    ( 0.1622)
               294 C17    2s     (-0.1528) 317 C18    2s     ( 0.1627) 343 C19    2px    (-0.1690) 362 H20    1s     ( 0.1318)
               372 H22    1s     (-0.1234) 377 H23    1s     ( 0.1466)
         26   -0.7642    2.0000                                                                                                           
                 2 N1     2s     ( 0.2165)  32 C2     2s     (-0.1857)  35 C2     2px    (-0.1384)  64 C3     2pz    ( 0.1653)
                78 C4     2s     ( 0.1223) 101 C5     2s     (-0.1323) 133 C6     2pz    (-0.1345) 150 C7     2px    ( 0.1503)
               174 H9     1s     ( 0.1666) 184 H11    1s     ( 0.1368) 195 N13    2s     (-0.2160) 225 C14    2s     ( 0.1843)
[...]
        8129  ( 3:1: 197/  20)   2222u2d222u00000d       0.075694       0.005730
       11629  ( 3:1:   1/  31)   22220222222000000       0.093370       0.008718
       11965  ( 3:1:   1/  32)   222ud222222000000      -0.058533       0.003426

  The CI coefficients for the MIXED state nr.   7
--------------------------------------------------------------------------------
 CI COEFFICIENTS LARGER THAN  0.50D-01
  Occupation of active orbitals, and spin coupling
  of open shells. (u,d: Spin up or down).
  SGUGA info is (Midvert:IsyUp:UpperWalk/LowerWalk)
        Conf  SGUGA info        Occupation            Coefficient         Weight
         542  ( 2:1:   2/   4)   22222u222d2000000      -0.657189       0.431897
         543  ( 2:1:   3/   4)   22222u22220d00000      -0.072931       0.005319
         545  ( 2:1:   5/   4)   22222u222udd00000      -0.060907       0.003710
         563  ( 2:1:  23/   4)   22222u222ud00d000      -0.145521       0.021176
         577  ( 2:1:  37/   4)   22222u222d0002000       0.083353       0.006948
         653  ( 2:1: 113/   4)   22222u2222000000d      -0.260561       0.067892
        1045  ( 2:1:   1/   7)   22u2222222d000000       0.266366       0.070951
        1158  ( 2:1: 114/   7)   22u222222du00000d       0.061033       0.003725
        2607  ( 3:1:  51/   4)   22222u22d2u000d00       0.139028       0.019329
        5246  ( 3:1:   2/  12)   22222u2d22ud00000      -0.065997       0.004356
        5441  ( 3:1: 197/  12)   22222u2d22u00000d       0.166862       0.027843
        7598  ( 3:1:   2/  19)   22222ud222ud00000       0.132873       0.017655
        7793  ( 3:1: 197/  19)   22222ud222u00000d       0.183397       0.033634
        7813  ( 3:1: 217/  19)   22222ud222000u00d      -0.062530       0.003910
        9950  ( 3:1:   2/  26)   2222ud2222ud00000       0.055312       0.003059
        9969  ( 3:1:  21/  26)   2222ud2222u00d000       0.111228       0.012372
       10390  ( 3:1: 106/  27)   222u2d2222u0000d0       0.065375       0.004274
       10963  ( 3:1:   7/  29)   2u222d2222u0d0000       0.068015       0.004626
       17134  ( 4:1:  46/   3)   22222u22u2d000d00       0.080010       0.006402
       19945  ( 4:1: 211/  10)   22222u2u22d00000d       0.089684       0.008043
       22003  ( 4:1:   1/  16)   22222uu222dd00000       0.077562       0.006016
       22213  ( 4:1: 211/  16)   22222uu222d00000d       0.093168       0.008680
       24286  ( 4:1:  16/  22)   2222uu2222d00d000      -0.052390       0.002745
       31093  ( 5:1: 117/   3)   22222u220d2000200      -0.076361       0.005831

  The CI coefficients for the MIXED state nr.   8
--------------------------------------------------------------------------------
 CI COEFFICIENTS LARGER THAN  0.50D-01
  Occupation of active orbitals, and spin coupling
  of open shells. (u,d: Spin up or down).
  SGUGA info is (Midvert:IsyUp:UpperWalk/LowerWalk)
        Conf  SGUGA info        Occupation            Coefficient         Weight
         543  ( 2:1:   3/   4)   22222u22220d00000       0.424547       0.180241
         544  ( 2:1:   4/   4)   22222u222dud00000      -0.168455       0.028377
         545  ( 2:1:   5/   4)   22222u222udd00000      -0.210667       0.044380
         561  ( 2:1:  21/   4)   22222u2222000d000      -0.057681       0.003327
         563  ( 2:1:  23/   4)   22222u222ud00d000       0.074643       0.005572
         567  ( 2:1:  27/   4)   22222u222u0d0d000      -0.055873       0.003122
         653  ( 2:1: 113/   4)   22222u2222000000d      -0.171777       0.029507
         654  ( 2:1: 114/   4)   22222u222du00000d       0.138398       0.019154
         655  ( 2:1: 115/   4)   22222u222ud00000d       0.112124       0.012572
        1045  ( 2:1:   1/   7)   22u2222222d000000      -0.052351       0.002741
        5245  ( 3:1:   1/  12)   22222u2d222000000      -0.464425       0.215691
        5246  ( 3:1:   2/  12)   22222u2d22ud00000      -0.142658       0.020351
        5248  ( 3:1:   4/  12)   22222u2d220200000       0.077011       0.005931
        5267  ( 3:1:  23/  12)   22222u2d220u0d000       0.057762       0.003336
        5441  ( 3:1: 197/  12)   22222u2d22u00000d       0.224808       0.050538
        5443  ( 3:1: 199/  12)   22222u2d220u0000d      -0.062968       0.003965
        5461  ( 3:1: 217/  12)   22222u2d22000u00d      -0.064757       0.004193
        7597  ( 3:1:   1/  19)   22222ud2222000000       0.192017       0.036870
        7598  ( 3:1:   2/  19)   22222ud222ud00000      -0.057313       0.003285
        7603  ( 3:1:   7/  19)   22222ud222u0d0000       0.059108       0.003494
        7793  ( 3:1: 197/  19)   22222ud222u00000d      -0.107191       0.011490
       10958  ( 3:1:   2/  29)   2u222d2222ud00000       0.067829       0.004601
       10977  ( 3:1:  21/  29)   2u222d2222u00d000      -0.059909       0.003589
       19735  ( 4:1:   1/  10)   22222u2u22dd00000      -0.166740       0.027802
       19945  ( 4:1: 211/  10)   22222u2u22d00000d       0.067193       0.004515
       22003  ( 4:1:   1/  16)   22222uu222dd00000      -0.104817       0.010987
       31094  ( 5:1: 118/   3)   22222u22020d00200       0.050054       0.002505
      150549  ( 6:1:  41/   3)   22222u2d022000200       0.051523       0.002655

  The CI coefficients for the MIXED state nr.   9
--------------------------------------------------------------------------------
 CI COEFFICIENTS LARGER THAN  0.50D-01
  Occupation of active orbitals, and spin coupling
  of open shells. (u,d: Spin up or down).
  SGUGA info is (Midvert:IsyUp:UpperWalk/LowerWalk)
        Conf  SGUGA info        Occupation            Coefficient         Weight
         541  ( 2:1:   1/   4)   22222u2222d000000      -0.056474       0.003189
         543  ( 2:1:   3/   4)   22222u22220d00000       0.079679       0.006349
         544  ( 2:1:   4/   4)   22222u222dud00000       0.126164       0.015917
         545  ( 2:1:   5/   4)   22222u222udd00000       0.111377       0.012405
         561  ( 2:1:  21/   4)   22222u2222000d000       0.378805       0.143493
         654  ( 2:1: 114/   4)   22222u222du00000d       0.285201       0.081339
         655  ( 2:1: 115/   4)   22222u222ud00000d       0.170103       0.028935
         669  ( 2:1: 129/   4)   22222u222d000u00d      -0.080303       0.006449
         673  ( 2:1: 133/   4)   22222u222u000d00d      -0.068914       0.004749
        2577  ( 3:1:  21/   4)   22222u22d2u00d000      -0.068460       0.004687
        2607  ( 3:1:  51/   4)   22222u22d2u000d00      -0.176316       0.031087
        2627  ( 3:1:  71/   4)   22222u22d2000ud00       0.058683       0.003444
        5245  ( 3:1:   1/  12)   22222u2d222000000      -0.141546       0.020035
        5246  ( 3:1:   2/  12)   22222u2d22ud00000      -0.130978       0.017155
        5267  ( 3:1:  23/  12)   22222u2d220u0d000       0.056432       0.003185
        5441  ( 3:1: 197/  12)   22222u2d22u00000d      -0.060352       0.003642
        7597  ( 3:1:   1/  19)   22222ud2222000000      -0.504814       0.254837
        7598  ( 3:1:   2/  19)   22222ud222ud00000       0.090229       0.008141
        7617  ( 3:1:  21/  19)   22222ud222u00d000      -0.114599       0.013133
        7637  ( 3:1:  41/  19)   22222ud2220002000       0.119456       0.014270
       10145  ( 3:1: 197/  26)   2222ud2222u00000d      -0.125089       0.015647
       10390  ( 3:1: 106/  27)   222u2d2222u0000d0      -0.056322       0.003172
       10963  ( 3:1:   7/  29)   2u222d2222u0d0000       0.051977       0.002702
       12301  ( 3:1:   1/  33)   22u2d222222000000       0.065997       0.004356
       17134  ( 4:1:  46/   3)   22222u22u2d000d00      -0.098708       0.009743
       19735  ( 4:1:   1/  10)   22222u2u22dd00000      -0.074278       0.005517
       19750  ( 4:1:  16/  10)   22222u2u22d00d000      -0.058622       0.003436
       22018  ( 4:1:  16/  16)   22222uu222d00d000      -0.159368       0.025398
       24481  ( 4:1: 211/  22)   2222uu2222d00000d       0.052570       0.002764
      151921  ( 6:1:  41/  10)   22222ud2022000200       0.057933       0.003356

  The CI coefficients for the MIXED state nr.  10
--------------------------------------------------------------------------------
 CI COEFFICIENTS LARGER THAN  0.50D-01
  Occupation of active orbitals, and spin coupling
  of open shells. (u,d: Spin up or down).
  SGUGA info is (Midvert:IsyUp:UpperWalk/LowerWalk)
        Conf  SGUGA info        Occupation            Coefficient         Weight
           3  ( 1:1:   3/   1)   22222222202000000       0.089757       0.008056
           4  ( 1:1:   4/   1)   222222222u0d00000       0.157769       0.024891
           5  ( 1:1:   5/   1)   2222222220ud00000       0.111719       0.012481
          11  ( 1:1:  11/   1)   222222222u000d000      -0.120617       0.014549
          16  ( 1:1:  16/   1)   222222222u0000d00      -0.151650       0.022998
          17  ( 1:1:  17/   1)   2222222220u000d00       0.082352       0.006782
          29  ( 1:1:  29/   1)   222222222u000000d       0.095805       0.009179
          37  ( 2:1:   1/   1)   22222222u2d000000       0.199742       0.039897
          38  ( 2:1:   2/   1)   22222222ud2000000      -0.172219       0.029659
          39  ( 2:1:   3/   1)   22222222u20d00000      -0.129188       0.016689
          57  ( 2:1:  21/   1)   22222222u2000d000      -0.161629       0.026124
          58  ( 2:1:  22/   1)   22222222udu00d000      -0.081055       0.006570
         149  ( 2:1: 113/   1)   22222222u2000000d      -0.251391       0.063198
         151  ( 2:1: 115/   1)   22222222uud00000d       0.125682       0.015796
         185  ( 2:1: 149/   1)   22222222ud00000ud      -0.050539       0.002554
         205  ( 2:1:   1/   2)   2222222u22d000000       0.086981       0.007566
         206  ( 2:1:   2/   2)   2222222u2d2000000       0.125296       0.015699
         207  ( 2:1:   3/   2)   2222222u220d00000       0.106951       0.011438
         208  ( 2:1:   4/   2)   2222222u2dud00000       0.056961       0.003245
         225  ( 2:1:  21/   2)   2222222u22000d000      -0.098219       0.009647
         245  ( 2:1:  41/   2)   2222222u220000d00       0.184291       0.033963
         317  ( 2:1: 113/   2)   2222222u22000000d       0.190443       0.036269
         319  ( 2:1: 115/   2)   2222222u2ud00000d       0.113411       0.012862
         373  ( 2:1:   1/   3)   222222u222d000000      -0.135994       0.018494
         374  ( 2:1:   2/   3)   222222u22d2000000      -0.079882       0.006381
         375  ( 2:1:   3/   3)   222222u2220d00000       0.217054       0.047112
         393  ( 2:1:  21/   3)   222222u222000d000       0.066846       0.004468
         413  ( 2:1:  41/   3)   222222u2220000d00       0.203665       0.041480
         485  ( 2:1: 113/   3)   222222u222000000d      -0.180116       0.032442
         711  ( 2:1:   3/   5)   2222u222220d00000      -0.089695       0.008045
         729  ( 2:1:  21/   5)   2222u22222000d000       0.082529       0.006811
         749  ( 2:1:  41/   5)   2222u222220000d00       0.125162       0.015666
        1599  ( 3:1:  51/   1)   2222222202u000d00      -0.050786       0.002579
        1694  ( 3:1: 146/   1)   22222222020000ud0      -0.054696       0.002992
        1886  ( 3:1:   2/   2)   2222222ud2ud00000      -0.065458       0.004285
        2221  ( 3:1:   1/   3)   222222u2d22000000      -0.051969       0.002701
        2241  ( 3:1:  21/   3)   222222u2d2u00d000      -0.060413       0.003650
        3089  ( 3:1: 197/   5)   2222u222d2u00000d      -0.067529       0.004560
        3319  ( 3:1:  91/   6)   222u2222d20000200      -0.057184       0.003270
        4574  ( 3:1:   2/  10)   2222222022ud00000      -0.056353       0.003176
        4917  ( 3:1:   9/  11)   222222ud220ud0000      -0.051376       0.002640
        5777  ( 3:1: 197/  13)   2222u22d22u00000d      -0.051878       0.002691

  The CI coefficients for the MIXED state nr.  11
--------------------------------------------------------------------------------
 CI COEFFICIENTS LARGER THAN  0.50D-01
  Occupation of active orbitals, and spin coupling
  of open shells. (u,d: Spin up or down).
  SGUGA info is (Midvert:IsyUp:UpperWalk/LowerWalk)
        Conf  SGUGA info        Occupation            Coefficient         Weight
           4  ( 1:1:   4/   1)   222222222u0d00000       0.194784       0.037941
           5  ( 1:1:   5/   1)   2222222220ud00000       0.104917       0.011008
          12  ( 1:1:  12/   1)   2222222220u00d000      -0.067774       0.004593
          16  ( 1:1:  16/   1)   222222222u0000d00       0.118186       0.013968
          17  ( 1:1:  17/   1)   2222222220u000d00      -0.078901       0.006225
          30  ( 1:1:  30/   1)   2222222220u00000d       0.051127       0.002614
          31  ( 1:1:  31/   1)   22222222200u0000d       0.058513       0.003424
          34  ( 1:1:  34/   1)   22222222200000u0d       0.054483       0.002968
          37  ( 2:1:   1/   1)   22222222u2d000000      -0.161895       0.026210
          38  ( 2:1:   2/   1)   22222222ud2000000       0.150446       0.022634
          39  ( 2:1:   3/   1)   22222222u20d00000       0.146646       0.021505
          57  ( 2:1:  21/   1)   22222222u2000d000       0.114066       0.013011
          58  ( 2:1:  22/   1)   22222222udu00d000       0.058990       0.003480
         149  ( 2:1: 113/   1)   22222222u2000000d       0.219208       0.048052
         151  ( 2:1: 115/   1)   22222222uud00000d      -0.101751       0.010353
         205  ( 2:1:   1/   2)   2222222u22d000000       0.152749       0.023332
         206  ( 2:1:   2/   2)   2222222u2d2000000       0.089588       0.008026
         207  ( 2:1:   3/   2)   2222222u220d00000       0.089455       0.008002
         225  ( 2:1:  21/   2)   2222222u22000d000      -0.233324       0.054440
         245  ( 2:1:  41/   2)   2222222u220000d00      -0.097836       0.009572
         317  ( 2:1: 113/   2)   2222222u22000000d       0.182013       0.033129
         319  ( 2:1: 115/   2)   2222222u2ud00000d       0.117004       0.013690
         326  ( 2:1: 122/   2)   2222222u2d00u000d       0.053029       0.002812
         373  ( 2:1:   1/   3)   222222u222d000000      -0.102752       0.010558
         374  ( 2:1:   2/   3)   222222u22d2000000      -0.175056       0.030645
         375  ( 2:1:   3/   3)   222222u2220d00000       0.182403       0.033271
         393  ( 2:1:  21/   3)   222222u222000d000      -0.060062       0.003607
         394  ( 2:1:  22/   3)   222222u22du00d000      -0.056676       0.003212
         413  ( 2:1:  41/   3)   222222u2220000d00      -0.179291       0.032145
         415  ( 2:1:  43/   3)   222222u22ud000d00      -0.054794       0.003002
         485  ( 2:1: 113/   3)   222222u222000000d      -0.249543       0.062272
         487  ( 2:1: 115/   3)   222222u22ud00000d      -0.060577       0.003670
         709  ( 2:1:   1/   5)   2222u22222d000000       0.086062       0.007407
         711  ( 2:1:   3/   5)   2222u222220d00000      -0.117038       0.013698
         749  ( 2:1:  41/   5)   2222u222220000d00      -0.124404       0.015476
        1215  ( 2:1:   3/   8)   2u222222220d00000       0.050670       0.002567
        1329  ( 2:1: 117/   8)   2u2222222d0u0000d      -0.052412       0.002747
        1935  ( 3:1:  51/   2)   2222222ud2u000d00      -0.064608       0.004174
        2241  ( 3:1:  21/   3)   222222u2d2u00d000       0.070181       0.004925
        3089  ( 3:1: 197/   5)   2222u222d2u00000d       0.054013       0.002917
        4574  ( 3:1:   2/  10)   2222222022ud00000      -0.057812       0.003342
        4917  ( 3:1:   9/  11)   222222ud220ud0000      -0.058314       0.003400
        5777  ( 3:1: 197/  13)   2222u22d22u00000d      -0.051189       0.002620
        7261  ( 3:1:   1/  18)   22222202222000000       0.054246       0.002943
        7281  ( 3:1:  21/  18)   2222220222u00d000       0.071108       0.005056
        7933  ( 3:1:   1/  20)   2222u2d2222000000      -0.053075       0.002817

  The CI coefficients for the MIXED state nr.  12
--------------------------------------------------------------------------------
 CI COEFFICIENTS LARGER THAN  0.50D-01
  Occupation of active orbitals, and spin coupling
  of open shells. (u,d: Spin up or down).
  SGUGA info is (Midvert:IsyUp:UpperWalk/LowerWalk)
        Conf  SGUGA info        Occupation            Coefficient         Weight
           4  ( 1:1:   4/   1)   222222222u0d00000       0.124497       0.015499
           5  ( 1:1:   5/   1)   2222222220ud00000       0.057468       0.003303
          11  ( 1:1:  11/   1)   222222222u000d000       0.327023       0.106944
          16  ( 1:1:  16/   1)   222222222u0000d00      -0.132359       0.017519
          30  ( 1:1:  30/   1)   2222222220u00000d       0.374954       0.140591
          33  ( 1:1:  33/   1)   2222222220000u00d      -0.051405       0.002642
          38  ( 2:1:   2/   1)   22222222ud2000000      -0.068375       0.004675
         149  ( 2:1: 113/   1)   22222222u2000000d      -0.056048       0.003141
         206  ( 2:1:   2/   2)   2222222u2d2000000      -0.233633       0.054584
         208  ( 2:1:   4/   2)   2222222u2dud00000      -0.050490       0.002549
         209  ( 2:1:   5/   2)   2222222u2udd00000       0.050538       0.002554
         226  ( 2:1:  22/   2)   2222222u2du00d000      -0.075999       0.005776
         317  ( 2:1: 113/   2)   2222222u22000000d      -0.059667       0.003560
         374  ( 2:1:   2/   3)   222222u22d2000000      -0.239466       0.057344
         375  ( 2:1:   3/   3)   222222u2220d00000      -0.056774       0.003223
         376  ( 2:1:   4/   3)   222222u22dud00000      -0.057058       0.003256
         394  ( 2:1:  22/   3)   222222u22du00d000      -0.069737       0.004863
         395  ( 2:1:  23/   3)   222222u22ud00d000       0.071630       0.005131
         409  ( 2:1:  37/   3)   222222u22d0002000       0.058581       0.003432
         413  ( 2:1:  41/   3)   222222u2220000d00       0.051840       0.002687
         534  ( 2:1: 162/   3)   222222u22d0000002      -0.053626       0.002876
         709  ( 2:1:   1/   5)   2222u22222d000000       0.375473       0.140980
         711  ( 2:1:   3/   5)   2222u222220d00000       0.063815       0.004072
         729  ( 2:1:  21/   5)   2222u22222000d000       0.057487       0.003305
         823  ( 2:1: 115/   5)   2222u2222ud00000d       0.135798       0.018441
         841  ( 2:1: 133/   5)   2222u2222u000d00d      -0.059685       0.003562
         877  ( 2:1:   1/   6)   222u222222d000000       0.056083       0.003145
         990  ( 2:1: 114/   6)   222u22222du00000d      -0.081479       0.006639
        1325  ( 2:1: 113/   8)   2u22222222000000d       0.090439       0.008179
        2943  ( 3:1:  51/   5)   2222u222d2u000d00      -0.067639       0.004575
        5105  ( 3:1: 197/  11)   222222ud22u00000d       0.067796       0.004596
        5581  ( 3:1:   1/  13)   2222u22d222000000      -0.095155       0.009054
        5582  ( 3:1:   2/  13)   2222u22d22ud00000      -0.061038       0.003726
        5917  ( 3:1:   1/  14)   222u222d222000000       0.055395       0.003069
        7933  ( 3:1:   1/  20)   2222u2d2222000000      -0.119156       0.014198
        8269  ( 3:1:   1/  21)   222u22d2222000000       0.064752       0.004193
       11825  ( 3:1: 197/  31)   2222022222u00000d      -0.090273       0.008149
       20128  ( 4:1:  16/  11)   2222u22u22d00d000      -0.053080       0.002817
       22396  ( 4:1:  16/  17)   2222u2u222d00d000      -0.073781       0.005444

--

--- Stop Module: caspt2 at Thu Sep  9 03:14:07 2021 /rc=_RC_ALL_IS_WELL_ ---
*** files: xmldump
    saved to directory /scratch/montorsi_molcas_731046
--- Module caspt2 spent 3 days 17 hours 28 minutes 26 seconds ---

>>> COPY /scratch/montorsi_tmp_731046/FC.JobMix /scratch/montorsi_molcas_731046/valence.JobMix

.##################.
.# Happy landing! #.
.##################.

    Timing: Wall=330288.83 User=1310554.16 System=9643.51
